FILETYPE = SOLUTION
VARIABLES = Tw Hw Hi HTC Beta TauX TauY TauZ
ZONE T="4_Block-4_WALL_4_Isotermal_wall"
I=     2 J=    60 K=     1
ZONETYPE = Ordered, DATAPACKING = BLOCK, VARLOCATION=([1-8]=CELLCENTERED)
 STRANDID=      400004 SOLUTIONTIME=  15000.00000000
   302.0000       302.0000       302.0000       302.0000       302.0000       302.0000       302.0000       302.0000       302.0000       302.0000       302.0000       302.0000       302.0000       302.0000       302.0000       302.0000       302.0000       302.0000       302.0000       302.0000       302.0000       302.0000       302.0000       302.0000       302.0000       302.0000       302.0000       302.0000       302.0000       302.0000       302.0000       302.0000       302.0000       302.0000       302.0000       302.0000       302.0000       302.0000       302.0000       302.0000       302.0000       302.0000       302.0000       302.0000       302.0000       302.0000       302.0000       302.0000       302.0000       302.0000       302.0000       302.0000       302.0000       302.0000       302.0000       302.0000       302.0000       302.0000       302.0000    
  0.0000000E+00  0.0000000E+00  0.0000000E+00  0.0000000E+00  0.0000000E+00  0.0000000E+00  0.0000000E+00  0.0000000E+00  0.0000000E+00  0.0000000E+00  0.0000000E+00  0.0000000E+00  0.0000000E+00  0.0000000E+00  0.0000000E+00  0.0000000E+00  0.0000000E+00  0.0000000E+00  0.0000000E+00  0.0000000E+00  0.0000000E+00  0.0000000E+00  0.0000000E+00  0.0000000E+00  0.0000000E+00  0.0000000E+00  0.0000000E+00  0.0000000E+00  0.0000000E+00  0.0000000E+00  0.0000000E+00  0.0000000E+00  0.0000000E+00  0.0000000E+00  0.0000000E+00  0.0000000E+00  0.0000000E+00  0.0000000E+00  0.0000000E+00  0.0000000E+00  0.0000000E+00  0.0000000E+00  0.0000000E+00  0.0000000E+00  0.0000000E+00  0.0000000E+00  0.0000000E+00  0.0000000E+00  0.0000000E+00  0.0000000E+00  0.0000000E+00  0.0000000E+00  0.0000000E+00  0.0000000E+00  0.0000000E+00  0.0000000E+00  0.0000000E+00  0.0000000E+00  0.0000000E+00
  0.0000000E+00  0.0000000E+00  0.0000000E+00  0.0000000E+00  0.0000000E+00  0.0000000E+00  0.0000000E+00  0.0000000E+00  0.0000000E+00  0.0000000E+00  0.0000000E+00  0.0000000E+00  0.0000000E+00  0.0000000E+00  0.0000000E+00  0.0000000E+00  0.0000000E+00  0.0000000E+00  0.0000000E+00  0.0000000E+00  0.0000000E+00  0.0000000E+00  0.0000000E+00  0.0000000E+00  0.0000000E+00  0.0000000E+00  0.0000000E+00  0.0000000E+00  0.0000000E+00  0.0000000E+00  0.0000000E+00  0.0000000E+00  0.0000000E+00  0.0000000E+00  0.0000000E+00  0.0000000E+00  0.0000000E+00  0.0000000E+00  0.0000000E+00  0.0000000E+00  0.0000000E+00  0.0000000E+00  0.0000000E+00  0.0000000E+00  0.0000000E+00  0.0000000E+00  0.0000000E+00  0.0000000E+00  0.0000000E+00  0.0000000E+00  0.0000000E+00  0.0000000E+00  0.0000000E+00  0.0000000E+00  0.0000000E+00  0.0000000E+00  0.0000000E+00  0.0000000E+00  0.0000000E+00
   785.1851       797.3563       808.7512       819.3499       829.0757       837.8942       845.9847       853.1485       859.4530       864.7419       869.0717       872.4568       874.7897       875.9103       876.0150       874.8502       872.4856       868.8910       863.9749       857.5083       849.6430       840.1544       828.9427       815.8203       800.6743       783.1729       763.0207       739.8753       713.1245       682.0920       645.9042       603.4854       553.7433       496.1068       430.9526       361.6777       296.0441       243.7113       231.0233       240.8558       245.5821       241.9704       234.3572       224.7031       214.2992       203.7063       193.2650       183.6111       175.3012       169.2750       165.6427       164.1046       164.1417       165.3664       167.3552       170.1609       173.7437       178.2268       183.5448    
  0.0000000E+00  0.0000000E+00  0.0000000E+00  0.0000000E+00  0.0000000E+00  0.0000000E+00  0.0000000E+00  0.0000000E+00  0.0000000E+00  0.0000000E+00  0.0000000E+00  0.0000000E+00  0.0000000E+00  0.0000000E+00  0.0000000E+00  0.0000000E+00  0.0000000E+00  0.0000000E+00  0.0000000E+00  0.0000000E+00  0.0000000E+00  0.0000000E+00  0.0000000E+00  0.0000000E+00  0.0000000E+00  0.0000000E+00  0.0000000E+00  0.0000000E+00  0.0000000E+00  0.0000000E+00  0.0000000E+00  0.0000000E+00  0.0000000E+00  0.0000000E+00  0.0000000E+00  0.0000000E+00  0.0000000E+00  0.0000000E+00  0.0000000E+00  0.0000000E+00  0.0000000E+00  0.0000000E+00  0.0000000E+00  0.0000000E+00  0.0000000E+00  0.0000000E+00  0.0000000E+00  0.0000000E+00  0.0000000E+00  0.0000000E+00  0.0000000E+00  0.0000000E+00  0.0000000E+00  0.0000000E+00  0.0000000E+00  0.0000000E+00  0.0000000E+00  0.0000000E+00  0.0000000E+00
  -97.36102      -102.8550      -108.2276      -113.5343      -118.6484      -123.6176      -128.3120      -132.8057      -136.9554      -140.7826      -144.2264      -147.2514      -149.8011      -151.8768      -153.3642      -154.2853      -154.5591      -154.1654      -153.0620      -151.1682      -148.4818      -144.9473      -140.5097      -135.1044      -128.7044      -121.1857      -112.5210      -102.5616      -91.24362      -78.44453      -64.17538      -48.54326      -32.12120      -16.11358      -2.320762       7.663388       12.29751       12.67632       11.60708       10.26885       9.043431       8.009754       7.132256       6.368716       5.695569       5.096872       4.557327       4.065405       3.618756       3.215719       2.861712       2.557103       2.298112       2.082736       1.908882       1.778896       1.695627       1.662054       1.679210    
   94.82442       95.01276       94.79937       94.25857       93.31043       92.02364       90.33173       88.32060       85.92464       83.19704       80.13750       76.76512       73.09161       69.16057       64.96214       60.55484       55.95385       51.20274       46.33993       41.39475       36.42663       31.48064       26.60732       21.86164       17.30980       13.01160       9.045895       5.490461       2.440436      1.7486251E-04  -1.716599      -2.598576      -2.582322      -1.730097     -0.3121254       1.240032       2.328668       2.753105       2.847550       2.811949       2.737909       2.660249       2.582043       2.499636       2.412523       2.320975       2.223637       2.119373       2.010721       1.900355       1.795417       1.700561       1.617868       1.550444       1.501226       1.476874       1.485240       1.535334       1.635460    
 -1.4415587E-08 -1.4371341E-08 -1.3663191E-08 -1.3138176E-08 -1.5614217E-08 -1.8995488E-08 -2.0651903E-08 -1.5691171E-08 -1.1266136E-08 -1.5580850E-08 -9.1364951E-09  8.9948156E-09 -1.4949856E-08 -4.3014565E-09 -1.9201901E-08 -2.1664919E-08 -8.2453653E-09 -6.6640213E-09  5.3898050E-09  2.3810786E-08 -5.6260259E-09 -5.7842735E-09 -5.4501124E-09 -7.1128716E-09 -2.3875641E-08 -8.9036547E-09 -3.3446930E-09 -9.2255279E-09 -5.1204072E-09 -4.1935685E-10 -1.2861138E-08 -6.6138552E-09 -4.8929660E-09  2.5351576E-09 -5.3772800E-09  3.5126448E-09  5.6000067E-09  6.8268774E-10 -1.9790851E-09  4.2626538E-09  8.2290494E-09 -2.3571217E-10 -2.7415976E-09 -1.3497725E-09 -2.6230489E-09 -4.2783306E-09 -2.1832069E-09 -3.2975438E-09 -7.5763014E-09 -1.6079214E-08 -2.5705916E-08 -2.7031094E-08 -2.2418257E-08 -1.6317758E-08 -1.2394765E-08 -1.3242538E-08 -1.5045556E-08 -1.6707297E-08 -1.6895445E-08
