FILETYPE = GRID
VARIABLES = X Y Z
ZONE T="4_Block-4_WALL_4_Isotermal_wall"
I=     2 J=    60 K=     1
ZONETYPE = Ordered, DATAPACKING = BLOCK
 STRANDID=      400004 SOLUTIONTIME=  15000.00000000
 -1.7677670E-02 -1.7677670E-02 -1.7204897E-02 -1.7204897E-02 -1.6719671E-02 -1.6719671E-02 -1.6222363E-02 -1.6222363E-02 -1.5713301E-02 -1.5713301E-02 -1.5192794E-02 -1.5192794E-02 -1.4661262E-02 -1.4661262E-02 -1.4119019E-02 -1.4119019E-02 -1.3566451E-02 -1.3566451E-02 -1.3003970E-02 -1.3003970E-02 -1.2431941E-02 -1.2431941E-02 -1.1850777E-02 -1.1850777E-02 -1.1260908E-02 -1.1260908E-02 -1.0662735E-02 -1.0662735E-02 -1.0056700E-02 -1.0056700E-02 -9.4432337E-03 -9.4432337E-03 -8.8227876E-03 -8.8227876E-03 -8.1958091E-03 -8.1958091E-03 -7.5627500E-03 -7.5627500E-03 -6.9240900E-03 -6.9240900E-03 -6.2802867E-03 -6.2802867E-03 -5.6318091E-03 -5.6318091E-03 -4.9791574E-03 -4.9791574E-03 -4.3227877E-03 -4.3227877E-03 -3.6632016E-03 -3.6632016E-03 -3.0009116E-03 -3.0009116E-03 -2.3363421E-03 -2.3363421E-03 -1.6700680E-03 -1.6700680E-03 -1.0025216E-03 -1.0025216E-03 -3.3424629E-04 -3.3424629E-04  3.3423203E-04  3.3423203E-04  1.0025084E-03  1.0025084E-03  1.6700540E-03  1.6700540E-03  2.3363268E-03  2.3363268E-03  3.0008978E-03  3.0008978E-03  3.6631883E-03  3.6631883E-03  4.3227761E-03  4.3227761E-03  4.9791443E-03  4.9791443E-03  5.6317947E-03  5.6317947E-03  6.2802746E-03  6.2802746E-03  6.9240765E-03  6.9240765E-03  7.5627393E-03  7.5627393E-03  8.1957979E-03  8.1957979E-03  8.8227754E-03  8.8227754E-03  9.4432244E-03  9.4432244E-03  1.0056689E-02  1.0056689E-02  1.0662726E-02  1.0662726E-02  1.1260901E-02  1.1260901E-02  1.1850771E-02  1.1850771E-02  1.2431933E-02  1.2431933E-02
  1.3003963E-02  1.3003963E-02  1.3566445E-02  1.3566445E-02  1.4119014E-02  1.4119014E-02  1.4661259E-02  1.4661259E-02  1.5192789E-02  1.5192789E-02  1.5713295E-02  1.5713295E-02  1.6222363E-02  1.6222363E-02  1.6719671E-02  1.6719671E-02  1.7204897E-02  1.7204897E-02  1.7677670E-02  1.7677670E-02
 -1.7677670E-02 -1.7677670E-02 -1.8138124E-02 -1.8138124E-02 -1.8586354E-02 -1.8586354E-02 -1.9021958E-02 -1.9021958E-02 -1.9444594E-02 -1.9444594E-02 -1.9853944E-02 -1.9853944E-02 -2.0249628E-02 -2.0249628E-02 -2.0631367E-02 -2.0631367E-02 -2.0998845E-02 -2.0998845E-02 -2.1351740E-02 -2.1351740E-02 -2.1689788E-02 -2.1689788E-02 -2.2012703E-02 -2.2012703E-02 -2.2320215E-02 -2.2320215E-02 -2.2612078E-02 -2.2612078E-02 -2.2888049E-02 -2.2888049E-02 -2.3147902E-02 -2.3147902E-02 -2.3391418E-02 -2.3391418E-02 -2.3618398E-02 -2.3618398E-02 -2.3828655E-02 -2.3828655E-02 -2.4022011E-02 -2.4022011E-02 -2.4198307E-02 -2.4198307E-02 -2.4357395E-02 -2.4357395E-02 -2.4499143E-02 -2.4499143E-02 -2.4623435E-02 -2.4623435E-02 -2.4730165E-02 -2.4730165E-02 -2.4819238E-02 -2.4819238E-02 -2.4890592E-02 -2.4890592E-02 -2.4944155E-02 -2.4944155E-02 -2.4979891E-02 -2.4979891E-02 -2.4997765E-02 -2.4997765E-02 -2.4997767E-02 -2.4997767E-02 -2.4979891E-02 -2.4979891E-02 -2.4944156E-02 -2.4944156E-02 -2.4890592E-02 -2.4890592E-02 -2.4819238E-02 -2.4819238E-02 -2.4730166E-02 -2.4730166E-02 -2.4623437E-02 -2.4623437E-02 -2.4499146E-02 -2.4499146E-02 -2.4357399E-02 -2.4357399E-02 -2.4198309E-02 -2.4198309E-02 -2.4022015E-02 -2.4022015E-02 -2.3828659E-02 -2.3828659E-02 -2.3618404E-02 -2.3618404E-02 -2.3391424E-02 -2.3391424E-02 -2.3147905E-02 -2.3147905E-02 -2.2888055E-02 -2.2888055E-02 -2.2612082E-02 -2.2612082E-02 -2.2320217E-02 -2.2320217E-02 -2.2012707E-02 -2.2012707E-02 -2.1689791E-02 -2.1689791E-02
 -2.1351745E-02 -2.1351745E-02 -2.0998849E-02 -2.0998849E-02 -2.0631371E-02 -2.0631371E-02 -2.0249631E-02 -2.0249631E-02 -1.9853946E-02 -1.9853946E-02 -1.9444598E-02 -1.9444598E-02 -1.9021960E-02 -1.9021960E-02 -1.8586356E-02 -1.8586356E-02 -1.8138124E-02 -1.8138124E-02 -1.7677670E-02 -1.7677670E-02
  0.0000000E+00 -0.2200000      0.0000000E+00 -0.2200000      0.0000000E+00 -0.2200000      0.0000000E+00 -0.2200000      0.0000000E+00 -0.2200000      0.0000000E+00 -0.2200000      0.0000000E+00 -0.2200000      0.0000000E+00 -0.2200000      0.0000000E+00 -0.2200000      0.0000000E+00 -0.2200000      0.0000000E+00 -0.2200000      0.0000000E+00 -0.2200000      0.0000000E+00 -0.2200000      0.0000000E+00 -0.2200000      0.0000000E+00 -0.2200000      0.0000000E+00 -0.2200000      0.0000000E+00 -0.2200000      0.0000000E+00 -0.2200000      0.0000000E+00 -0.2200000      0.0000000E+00 -0.2200000      0.0000000E+00 -0.2200000      0.0000000E+00 -0.2200000      0.0000000E+00 -0.2200000      0.0000000E+00 -0.2200000      0.0000000E+00 -0.2200000      0.0000000E+00 -0.2200000      0.0000000E+00 -0.2200000      0.0000000E+00 -0.2200000      0.0000000E+00 -0.2200000      0.0000000E+00 -0.2200000      0.0000000E+00 -0.2200000      0.0000000E+00 -0.2200000      0.0000000E+00 -0.2200000      0.0000000E+00 -0.2200000      0.0000000E+00 -0.2200000      0.0000000E+00 -0.2200000      0.0000000E+00 -0.2200000      0.0000000E+00 -0.2200000      0.0000000E+00 -0.2200000      0.0000000E+00 -0.2200000      0.0000000E+00 -0.2200000      0.0000000E+00 -0.2200000      0.0000000E+00 -0.2200000      0.0000000E+00 -0.2200000      0.0000000E+00 -0.2200000      0.0000000E+00 -0.2200000      0.0000000E+00 -0.2200000      0.0000000E+00 -0.2200000      0.0000000E+00 -0.2200000      0.0000000E+00 -0.2200000    
  0.0000000E+00 -0.2200000      0.0000000E+00 -0.2200000      0.0000000E+00 -0.2200000      0.0000000E+00 -0.2200000      0.0000000E+00 -0.2200000      0.0000000E+00 -0.2200000      0.0000000E+00 -0.2200000      0.0000000E+00 -0.2200000      0.0000000E+00 -0.2200000      0.0000000E+00 -0.2200000    
