FILETYPE = SOLUTION
VARIABLES = Tw Hw Hi HTC Beta TauX TauY TauZ
ZONE T="3_Block-3_WALL_4_Isotermal_wall"
I=     2 J=    60 K=     1
ZONETYPE = Ordered, DATAPACKING = BLOCK, VARLOCATION=([1-8]=CELLCENTERED)
 STRANDID=      300004 SOLUTIONTIME=  15000.00000000
   302.0000       302.0000       302.0000       302.0000       302.0000       302.0000       302.0000       302.0000       302.0000       302.0000       302.0000       302.0000       302.0000       302.0000       302.0000       302.0000       302.0000       302.0000       302.0000       302.0000       302.0000       302.0000       302.0000       302.0000       302.0000       302.0000       302.0000       302.0000       302.0000       302.0000       302.0000       302.0000       302.0000       302.0000       302.0000       302.0000       302.0000       302.0000       302.0000       302.0000       302.0000       302.0000       302.0000       302.0000       302.0000       302.0000       302.0000       302.0000       302.0000       302.0000       302.0000       302.0000       302.0000       302.0000       302.0000       302.0000       302.0000       302.0000       302.0000    
  0.0000000E+00  0.0000000E+00  0.0000000E+00  0.0000000E+00  0.0000000E+00  0.0000000E+00  0.0000000E+00  0.0000000E+00  0.0000000E+00  0.0000000E+00  0.0000000E+00  0.0000000E+00  0.0000000E+00  0.0000000E+00  0.0000000E+00  0.0000000E+00  0.0000000E+00  0.0000000E+00  0.0000000E+00  0.0000000E+00  0.0000000E+00  0.0000000E+00  0.0000000E+00  0.0000000E+00  0.0000000E+00  0.0000000E+00  0.0000000E+00  0.0000000E+00  0.0000000E+00  0.0000000E+00  0.0000000E+00  0.0000000E+00  0.0000000E+00  0.0000000E+00  0.0000000E+00  0.0000000E+00  0.0000000E+00  0.0000000E+00  0.0000000E+00  0.0000000E+00  0.0000000E+00  0.0000000E+00  0.0000000E+00  0.0000000E+00  0.0000000E+00  0.0000000E+00  0.0000000E+00  0.0000000E+00  0.0000000E+00  0.0000000E+00  0.0000000E+00  0.0000000E+00  0.0000000E+00  0.0000000E+00  0.0000000E+00  0.0000000E+00  0.0000000E+00  0.0000000E+00  0.0000000E+00
  0.0000000E+00  0.0000000E+00  0.0000000E+00  0.0000000E+00  0.0000000E+00  0.0000000E+00  0.0000000E+00  0.0000000E+00  0.0000000E+00  0.0000000E+00  0.0000000E+00  0.0000000E+00  0.0000000E+00  0.0000000E+00  0.0000000E+00  0.0000000E+00  0.0000000E+00  0.0000000E+00  0.0000000E+00  0.0000000E+00  0.0000000E+00  0.0000000E+00  0.0000000E+00  0.0000000E+00  0.0000000E+00  0.0000000E+00  0.0000000E+00  0.0000000E+00  0.0000000E+00  0.0000000E+00  0.0000000E+00  0.0000000E+00  0.0000000E+00  0.0000000E+00  0.0000000E+00  0.0000000E+00  0.0000000E+00  0.0000000E+00  0.0000000E+00  0.0000000E+00  0.0000000E+00  0.0000000E+00  0.0000000E+00  0.0000000E+00  0.0000000E+00  0.0000000E+00  0.0000000E+00  0.0000000E+00  0.0000000E+00  0.0000000E+00  0.0000000E+00  0.0000000E+00  0.0000000E+00  0.0000000E+00  0.0000000E+00  0.0000000E+00  0.0000000E+00  0.0000000E+00  0.0000000E+00
   772.2491       758.5010       744.0865       728.9005       713.0467       696.4636       679.2436       661.4417       643.0482       624.1536       604.8074       585.0300       564.9402       544.7602       524.5540       504.3727       484.7256       465.4792       447.1628       429.8017       413.8932       399.5009       387.0634       376.3452       367.6768       360.5514       355.0454       350.8706       348.3104       347.8049       348.3095       350.8836       354.9639       360.5302       367.6768       376.3452       387.0634       399.4818       413.8931       429.7848       447.1614       465.4604       484.6609       504.4488       524.5444       544.7570       565.0234       584.9777       604.7820       624.1536       643.0482       661.4491       679.2422       696.4683       713.0285       728.9424       744.0764       758.5078       772.2363    
  0.0000000E+00  0.0000000E+00  0.0000000E+00  0.0000000E+00  0.0000000E+00  0.0000000E+00  0.0000000E+00  0.0000000E+00  0.0000000E+00  0.0000000E+00  0.0000000E+00  0.0000000E+00  0.0000000E+00  0.0000000E+00  0.0000000E+00  0.0000000E+00  0.0000000E+00  0.0000000E+00  0.0000000E+00  0.0000000E+00  0.0000000E+00  0.0000000E+00  0.0000000E+00  0.0000000E+00  0.0000000E+00  0.0000000E+00  0.0000000E+00  0.0000000E+00  0.0000000E+00  0.0000000E+00  0.0000000E+00  0.0000000E+00  0.0000000E+00  0.0000000E+00  0.0000000E+00  0.0000000E+00  0.0000000E+00  0.0000000E+00  0.0000000E+00  0.0000000E+00  0.0000000E+00  0.0000000E+00  0.0000000E+00  0.0000000E+00  0.0000000E+00  0.0000000E+00  0.0000000E+00  0.0000000E+00  0.0000000E+00  0.0000000E+00  0.0000000E+00  0.0000000E+00  0.0000000E+00  0.0000000E+00  0.0000000E+00  0.0000000E+00  0.0000000E+00  0.0000000E+00  0.0000000E+00
  -91.83820      -86.29407      -80.73389      -75.24380      -69.79131      -64.43841      -59.19999      -54.11179      -49.17212      -44.43176      -39.88988      -35.56525      -31.48066      -27.63464      -24.05575      -20.72722      -17.67798      -14.88900      -12.36910      -10.11090      -8.104694      -6.344784      -4.819922      -3.519143      -2.432172      -1.551182     -0.8702605     -0.3862216     -9.6419722E-02  0.0000000E+00 -9.6417822E-02 -0.3862240     -0.8703151      -1.551081      -2.432491      -3.518613      -4.820674      -6.344488      -8.104925      -10.11014      -12.37029      -14.88950      -17.67577      -20.72955      -24.05509      -27.63634      -31.47935      -35.56837      -39.88492      -44.43113      -49.18287      -54.09589      -59.21351      -64.43257      -69.78793      -75.23930      -80.74799      -86.28302      -91.84397    
  -94.29536      -93.41623      -92.17020      -90.63134      -88.74313      -86.56173      -84.09129      -81.36668      -78.37621      -75.18576      -71.79129      -68.22174      -64.51942      -60.68628      -56.79164      -52.81048      -48.83121      -44.82943      -40.85599      -36.92334      -33.03641      -29.21400      -25.45332      -21.74884      -18.08395      -14.44776      -10.82501      -7.214827      -3.604890      0.0000000E+00   3.604811       7.214585       10.82601       14.44649       18.08602       21.74521       25.45795       29.21237       33.03699       36.92092       40.85971       44.83068       48.82543       52.81597       56.79033       60.68959       64.51674       68.22787       71.78204       75.18512       78.39280       81.34345       84.11027       86.55325       88.73884       90.62633       92.18597       93.40431       94.30128    
 -2.0832873E-08 -1.7155271E-08 -1.6547475E-08 -2.1004190E-08 -1.8647713E-08 -1.7893058E-08 -1.7968588E-08 -1.8421382E-08 -1.8772573E-08 -2.0854246E-08 -1.9957259E-08 -1.8643775E-08 -1.8143055E-08 -2.0657316E-08 -1.6210018E-08 -2.0120121E-08 -1.4296692E-08 -2.3534112E-08 -2.3491236E-08 -1.7415639E-08 -1.6263954E-08 -8.4697815E-10 -5.9919327E-09 -8.3833172E-09 -1.2500826E-08 -2.5322235E-08 -2.1204492E-08 -1.0615652E-08 -2.0660771E-09  0.0000000E+00 -2.9295522E-09 -8.6079952E-09 -1.7762273E-08 -2.4338567E-08 -1.3787392E-08 -1.1220885E-08 -6.1916383E-09 -5.8605176E-10 -1.3247023E-08 -1.3925309E-08 -1.9976644E-08 -2.0343629E-08 -1.2236514E-08 -1.7814454E-08 -1.3081756E-08 -1.5908201E-08 -1.5124265E-08 -1.6873903E-08 -1.7383909E-08 -1.7017781E-08 -1.7002799E-08 -1.6705224E-08 -1.6577607E-08 -1.7021208E-08 -1.6912043E-08 -1.8671898E-08 -1.8016538E-08 -1.5870059E-08 -1.7412512E-08
