FILETYPE = SOLUTION
VARIABLES = Tw Hw Hi HTC Beta TauX TauY TauZ
ZONE T="1_Block-1_WALL_4_Isotermal_wall"
I=     2 J=    60 K=     1
ZONETYPE = Ordered, DATAPACKING = BLOCK, VARLOCATION=([1-8]=CELLCENTERED)
 STRANDID=      100004 SOLUTIONTIME=  15000.00000000
   302.0000       302.0000       302.0000       302.0000       302.0000       302.0000       302.0000       302.0000       302.0000       302.0000       302.0000       302.0000       302.0000       302.0000       302.0000       302.0000       302.0000       302.0000       302.0000       302.0000       302.0000       302.0000       302.0000       302.0000       302.0000       302.0000       302.0000       302.0000       302.0000       302.0000       302.0000       302.0000       302.0000       302.0000       302.0000       302.0000       302.0000       302.0000       302.0000       302.0000       302.0000       302.0000       302.0000       302.0000       302.0000       302.0000       302.0000       302.0000       302.0000       302.0000       302.0000       302.0000       302.0000       302.0000       302.0000       302.0000       302.0000       302.0000       302.0000    
  0.0000000E+00  0.0000000E+00  0.0000000E+00  0.0000000E+00  0.0000000E+00  0.0000000E+00  0.0000000E+00  0.0000000E+00  0.0000000E+00  0.0000000E+00  0.0000000E+00  0.0000000E+00  0.0000000E+00  0.0000000E+00  0.0000000E+00  0.0000000E+00  0.0000000E+00  0.0000000E+00  0.0000000E+00  0.0000000E+00  0.0000000E+00  0.0000000E+00  0.0000000E+00  0.0000000E+00  0.0000000E+00  0.0000000E+00  0.0000000E+00  0.0000000E+00  0.0000000E+00  0.0000000E+00  0.0000000E+00  0.0000000E+00  0.0000000E+00  0.0000000E+00  0.0000000E+00  0.0000000E+00  0.0000000E+00  0.0000000E+00  0.0000000E+00  0.0000000E+00  0.0000000E+00  0.0000000E+00  0.0000000E+00  0.0000000E+00  0.0000000E+00  0.0000000E+00  0.0000000E+00  0.0000000E+00  0.0000000E+00  0.0000000E+00  0.0000000E+00  0.0000000E+00  0.0000000E+00  0.0000000E+00  0.0000000E+00  0.0000000E+00  0.0000000E+00  0.0000000E+00  0.0000000E+00
  0.0000000E+00  0.0000000E+00  0.0000000E+00  0.0000000E+00  0.0000000E+00  0.0000000E+00  0.0000000E+00  0.0000000E+00  0.0000000E+00  0.0000000E+00  0.0000000E+00  0.0000000E+00  0.0000000E+00  0.0000000E+00  0.0000000E+00  0.0000000E+00  0.0000000E+00  0.0000000E+00  0.0000000E+00  0.0000000E+00  0.0000000E+00  0.0000000E+00  0.0000000E+00  0.0000000E+00  0.0000000E+00  0.0000000E+00  0.0000000E+00  0.0000000E+00  0.0000000E+00  0.0000000E+00  0.0000000E+00  0.0000000E+00  0.0000000E+00  0.0000000E+00  0.0000000E+00  0.0000000E+00  0.0000000E+00  0.0000000E+00  0.0000000E+00  0.0000000E+00  0.0000000E+00  0.0000000E+00  0.0000000E+00  0.0000000E+00  0.0000000E+00  0.0000000E+00  0.0000000E+00  0.0000000E+00  0.0000000E+00  0.0000000E+00  0.0000000E+00  0.0000000E+00  0.0000000E+00  0.0000000E+00  0.0000000E+00  0.0000000E+00  0.0000000E+00  0.0000000E+00  0.0000000E+00
   189.7015       196.7845       204.5496       213.0404       222.0100       231.3387       240.7748       250.3008       259.6706       268.8161       277.5180       285.8145       293.4468       300.4352       306.7935       312.3813       317.0899       321.0753       324.2827       326.5874       328.2964       329.1771       329.4611       329.1243       328.3178       327.7030       328.2812       329.1136       329.3683       329.0132       329.3683       329.0724       328.2566       327.7277       328.3461       329.1243       329.4336       329.1718       328.2642       326.5999       324.2575       321.0695       317.1145       312.3580       306.8066       300.5312       293.4847       285.8203       277.5106       268.8161       259.6686       250.3190       240.7968       231.3158       222.0164       213.0402       204.5719       196.7506       189.7462    
  0.0000000E+00  0.0000000E+00  0.0000000E+00  0.0000000E+00  0.0000000E+00  0.0000000E+00  0.0000000E+00  0.0000000E+00  0.0000000E+00  0.0000000E+00  0.0000000E+00  0.0000000E+00  0.0000000E+00  0.0000000E+00  0.0000000E+00  0.0000000E+00  0.0000000E+00  0.0000000E+00  0.0000000E+00  0.0000000E+00  0.0000000E+00  0.0000000E+00  0.0000000E+00  0.0000000E+00  0.0000000E+00  0.0000000E+00  0.0000000E+00  0.0000000E+00  0.0000000E+00  0.0000000E+00  0.0000000E+00  0.0000000E+00  0.0000000E+00  0.0000000E+00  0.0000000E+00  0.0000000E+00  0.0000000E+00  0.0000000E+00  0.0000000E+00  0.0000000E+00  0.0000000E+00  0.0000000E+00  0.0000000E+00  0.0000000E+00  0.0000000E+00  0.0000000E+00  0.0000000E+00  0.0000000E+00  0.0000000E+00  0.0000000E+00  0.0000000E+00  0.0000000E+00  0.0000000E+00  0.0000000E+00  0.0000000E+00  0.0000000E+00  0.0000000E+00  0.0000000E+00  0.0000000E+00
   1.746025       1.861278       2.019461       2.216145       2.441427       2.684697       2.931861       3.171758       3.388180       3.570444       3.707650       3.791053       3.813396       3.773360       3.670322       3.505817       3.287414       3.019640       2.715063       2.382023       2.033548       1.681898       1.338477       1.016040      0.7244153      0.4740596      0.2713760      0.1223174      3.0832753E-02  0.0000000E+00  3.0830486E-02  0.1223111      0.2714168      0.4739403      0.7245322       1.015953       1.338481       1.681863       2.033572       2.381991       2.714773       3.020408       3.286684       3.506539       3.669652       3.773634       3.813581       3.790800       3.707874       3.570301       3.388685       3.170985       2.931908       2.684432       2.441720       2.216363       2.019864       1.860859       1.746019    
  -1.792741      -2.014897      -2.305519      -2.669364      -3.104396      -3.606394      -4.164584      -4.769341      -5.400434      -6.041806      -6.672764      -7.272063      -7.815531      -8.286325      -8.665061      -8.932330      -9.080757      -9.091811      -8.967999      -8.698835      -8.289070      -7.744078      -7.068487      -6.279178      -5.386161      -4.415307      -3.375697      -2.284863      -1.152756      0.0000000E+00   1.152674       2.284838       3.376104       4.414297       5.387120       6.278744       7.068326       7.743992       8.289260       8.698635       8.967084       9.094177       9.078685       8.934242       8.663439       8.286983       7.815911       7.271562       6.673198       6.041530       5.401278       4.768141       4.164661       3.606065       3.104769       2.669615       2.305987       2.014442       1.792734    
 -1.6465128E-08 -1.8516236E-08 -2.1544350E-08 -2.4413179E-08 -2.4998879E-08 -2.4556616E-08 -2.4081896E-08 -2.3671312E-08 -2.2792003E-08 -2.0999318E-08 -1.7808595E-08 -1.5239667E-08 -1.2660338E-08 -1.0745466E-08 -9.7647890E-09 -9.6356620E-09 -6.2553118E-09 -7.2954740E-09 -5.8986687E-09 -3.5175924E-09 -1.5644004E-09  7.2829735E-11  1.0624316E-09  1.4984780E-09  1.6722904E-09  4.8186810E-10  3.7986878E-10 -2.8223066E-10  5.7393938E-09  0.0000000E+00  2.9142799E-09  1.5596030E-09  1.9285282E-09  1.8956929E-09  2.1383231E-09  2.2688249E-09  1.4084813E-09  4.2648746E-10 -1.5062175E-09 -2.9012290E-09 -5.6204019E-09 -5.2500075E-09 -6.0618275E-09 -8.7193817E-09 -9.1877279E-09 -1.1647797E-08 -1.2983278E-08 -1.5866792E-08 -1.7824680E-08 -1.8120808E-08 -2.2234628E-08 -2.1863578E-08 -2.3510204E-08 -2.3688576E-08 -2.4059702E-08 -2.3195890E-08 -2.1690326E-08 -1.8871216E-08 -1.7212315E-08
