FILETYPE = GRID
VARIABLES = X Y Z
ZONE T="1_Block-1_WALL_4_Isotermal_wall"
I=     2 J=    60 K=     1
ZONETYPE = Ordered, DATAPACKING = BLOCK
 STRANDID=      100004 SOLUTIONTIME=  15000.00000000
  1.7677670E-02  1.7677670E-02  1.8138148E-02  1.8138148E-02  1.8586371E-02  1.8586371E-02  1.9021979E-02  1.9021979E-02  1.9444617E-02  1.9444617E-02  1.9853948E-02  1.9853948E-02  2.0249646E-02  2.0249646E-02  2.0631388E-02  2.0631388E-02  2.0998860E-02  2.0998860E-02  2.1351758E-02  2.1351758E-02  2.1689793E-02  2.1689793E-02  2.2012716E-02  2.2012716E-02  2.2320231E-02  2.2320231E-02  2.2612089E-02  2.2612089E-02  2.2888059E-02  2.2888059E-02  2.3147916E-02  2.3147916E-02  2.3391429E-02  2.3391429E-02  2.3618406E-02  2.3618406E-02  2.3828669E-02  2.3828669E-02  2.4022011E-02  2.4022011E-02  2.4198316E-02  2.4198316E-02  2.4357399E-02  2.4357399E-02  2.4499152E-02  2.4499152E-02  2.4623437E-02  2.4623437E-02  2.4730166E-02  2.4730166E-02  2.4819238E-02  2.4819238E-02  2.4890594E-02  2.4890594E-02  2.4944156E-02  2.4944156E-02  2.4979891E-02  2.4979891E-02  2.4997767E-02  2.4997767E-02  2.4997767E-02  2.4997767E-02  2.4979891E-02  2.4979891E-02  2.4944158E-02  2.4944158E-02  2.4890594E-02  2.4890594E-02  2.4819240E-02  2.4819240E-02  2.4730170E-02  2.4730170E-02  2.4623441E-02  2.4623441E-02  2.4499154E-02  2.4499154E-02  2.4357403E-02  2.4357403E-02  2.4198322E-02  2.4198322E-02  2.4022015E-02  2.4022015E-02  2.3828670E-02  2.3828670E-02  2.3618411E-02  2.3618411E-02  2.3391431E-02  2.3391431E-02  2.3147922E-02  2.3147922E-02  2.2888063E-02  2.2888063E-02  2.2612093E-02  2.2612093E-02  2.2320237E-02  2.2320237E-02  2.2012720E-02  2.2012720E-02  2.1689797E-02  2.1689797E-02
  2.1351760E-02  2.1351760E-02  2.0998864E-02  2.0998864E-02  2.0631390E-02  2.0631390E-02  2.0249648E-02  2.0249648E-02  1.9853951E-02  1.9853951E-02  1.9444620E-02  1.9444620E-02  1.9021979E-02  1.9021979E-02  1.8586373E-02  1.8586373E-02  1.8138148E-02  1.8138148E-02  1.7677670E-02  1.7677670E-02
  1.7677670E-02  1.7677670E-02  1.7204871E-02  1.7204871E-02  1.6719654E-02  1.6719654E-02  1.6222341E-02  1.6222341E-02  1.5713273E-02  1.5713273E-02  1.5192787E-02  1.5192787E-02  1.4661239E-02  1.4661239E-02  1.4118991E-02  1.4118991E-02  1.3566427E-02  1.3566427E-02  1.3003941E-02  1.3003941E-02  1.2431929E-02  1.2431929E-02  1.1850752E-02  1.1850752E-02  1.1260871E-02  1.1260871E-02  1.0662711E-02  1.0662711E-02  1.0056681E-02  1.0056681E-02  9.4431955E-03  9.4431955E-03  8.8227615E-03  8.8227615E-03  8.1957867E-03  8.1957867E-03  7.5627118E-03  7.5627118E-03  6.9240863E-03  6.9240863E-03  6.2802448E-03  6.2802448E-03  5.6317956E-03  5.6317956E-03  4.9791182E-03  4.9791182E-03  4.3227719E-03  4.3227719E-03  3.6631685E-03  3.6631685E-03  3.0009041E-03  3.0009041E-03  2.3363100E-03  2.3363100E-03  1.6700395E-03  1.6700395E-03  1.0025268E-03  1.0025268E-03  3.3421098E-04  3.3421098E-04 -3.3419672E-04 -3.3419672E-04 -1.0025139E-03 -1.0025139E-03 -1.6700253E-03 -1.6700253E-03 -2.3362946E-03 -2.3362946E-03 -3.0008904E-03 -3.0008904E-03 -3.6631548E-03 -3.6631548E-03 -4.3227598E-03 -4.3227598E-03 -4.9791052E-03 -4.9791052E-03 -5.6317816E-03 -5.6317816E-03 -6.2802322E-03 -6.2802322E-03 -6.9240727E-03 -6.9240727E-03 -7.5627016E-03 -7.5627016E-03 -8.1957756E-03 -8.1957756E-03 -8.8227503E-03 -8.8227503E-03 -9.4431853E-03 -9.4431853E-03 -1.0056672E-02 -1.0056672E-02 -1.0662704E-02 -1.0662704E-02 -1.1260862E-02 -1.1260862E-02 -1.1850745E-02 -1.1850745E-02 -1.2431922E-02 -1.2431922E-02
 -1.3003933E-02 -1.3003933E-02 -1.3566421E-02 -1.3566421E-02 -1.4118984E-02 -1.4118984E-02 -1.4661235E-02 -1.4661235E-02 -1.5192783E-02 -1.5192783E-02 -1.5713267E-02 -1.5713267E-02 -1.6222341E-02 -1.6222341E-02 -1.6719652E-02 -1.6719652E-02 -1.7204871E-02 -1.7204871E-02 -1.7677670E-02 -1.7677670E-02
  0.0000000E+00 -0.2200000      0.0000000E+00 -0.2200000      0.0000000E+00 -0.2200000      0.0000000E+00 -0.2200000      0.0000000E+00 -0.2200000      0.0000000E+00 -0.2200000      0.0000000E+00 -0.2200000      0.0000000E+00 -0.2200000      0.0000000E+00 -0.2200000      0.0000000E+00 -0.2200000      0.0000000E+00 -0.2200000      0.0000000E+00 -0.2200000      0.0000000E+00 -0.2200000      0.0000000E+00 -0.2200000      0.0000000E+00 -0.2200000      0.0000000E+00 -0.2200000      0.0000000E+00 -0.2200000      0.0000000E+00 -0.2200000      0.0000000E+00 -0.2200000      0.0000000E+00 -0.2200000      0.0000000E+00 -0.2200000      0.0000000E+00 -0.2200000      0.0000000E+00 -0.2200000      0.0000000E+00 -0.2200000      0.0000000E+00 -0.2200000      0.0000000E+00 -0.2200000      0.0000000E+00 -0.2200000      0.0000000E+00 -0.2200000      0.0000000E+00 -0.2200000      0.0000000E+00 -0.2200000      0.0000000E+00 -0.2200000      0.0000000E+00 -0.2200000      0.0000000E+00 -0.2200000      0.0000000E+00 -0.2200000      0.0000000E+00 -0.2200000      0.0000000E+00 -0.2200000      0.0000000E+00 -0.2200000      0.0000000E+00 -0.2200000      0.0000000E+00 -0.2200000      0.0000000E+00 -0.2200000      0.0000000E+00 -0.2200000      0.0000000E+00 -0.2200000      0.0000000E+00 -0.2200000      0.0000000E+00 -0.2200000      0.0000000E+00 -0.2200000      0.0000000E+00 -0.2200000      0.0000000E+00 -0.2200000      0.0000000E+00 -0.2200000      0.0000000E+00 -0.2200000      0.0000000E+00 -0.2200000    
  0.0000000E+00 -0.2200000      0.0000000E+00 -0.2200000      0.0000000E+00 -0.2200000      0.0000000E+00 -0.2200000      0.0000000E+00 -0.2200000      0.0000000E+00 -0.2200000      0.0000000E+00 -0.2200000      0.0000000E+00 -0.2200000      0.0000000E+00 -0.2200000      0.0000000E+00 -0.2200000    
