# EXPORT_MODE=STALL
TITLE="FE Surface Data ASCII"
VARIABLES="X", "Y", "Z", "T", "Hw", "Hi", "HTC", "Beta", "MImp2", "Vd2", "TauX", "TauY", "TauZ", "Stall", "StallD", "StallVX", "StallVY", "StallVZ"
ZONE T="WALL_2000"
NODES=720
ELEMENTS=720
DATAPACKING=BLOCK
ZONETYPE=FETRIANGLE
VARLOCATION=([4-18]=CELLCENTERED)
0.002717 0.002734 0.003206 0.003222 0.003699 0.003714 0.004196 0.00421 0.004698 0.00471 0.005202 0.005214 0.00571 0.005721 0.00622 0.00623 0.006732 0.006741 0.007246 0.007254 0.00776 0.007768 0.008274 0.008281 0.008788 0.008794 0.0093 0.009306 0.009812 0.009817 0.01032 0.010325 0.010826 0.01083 0.011327 0.011331 0.011824 0.011827 0.012315 0.012317 0.012799 0.012801 0.013265 0.013267 0.013722 0.013724 0.01417 0.014172 0.014594 0.014595 0.014992 0.014993 0.015369 0.01537 0.015733 0.015734 0.016087 0.016087 0.016422 0.016423 0.016733 0.016734 0.017021 0.017021 0.017293 0.017294 0.017545 0.017546 0.017781 0.017781 0.017997 0.017997 0.018189 0.018189 0.018362 0.018362 0.018516 0.018516 0.018649 0.018649 0.01876 0.01876 0.018848 0.018848 0.018915 0.018915 0.018961 0.018961 0.018988 0.018988 0.018993 0.018993 0.018977 0.018977 0.018941 0.01894 0.018881 0.018881 0.018801 0.0188 0.018699 0.018699 0.018577 0.018577 0.018437 0.018437 0.018278 0.018278 0.018095 0.018095 0.01789 0.01789 0.017664 0.017663 0.017418 0.017418 0.017154 0.017154 0.016866 0.016865 0.016562 0.016561 0.016243 0.016242 0.015899 0.015899 0.015539 0.015538 0.015154 0.015153 0.014754 0.014752 0.01434 0.014338 0.013916 0.013914 0.013476 0.013474 0.013021 0.013019 0.012546 0.012543 0.012056 0.012053 0.011561 0.011558 0.011061 0.011058 0.010557 0.010553 0.010049 0.010045 0.009539 0.009533 0.009026 0.00902 0.008511 0.008504 0.007995 0.007988 0.00748 0.007472 0.006966 0.006957 0.006454 0.006444 0.005943 0.005932 0.005434 0.005423 0.004928 0.004915 0.004425 0.004411 0.003925 0.003911 0.00343 0.003415 0.002939 0.002923 0.002453 0.002436 0.002234 0.002252 0.001756 0.001775 0.001283 0.001303 0.000816 0.000838 0.000354 0.000377 -0.000101 -7.7e-05 -0.000551 -0.000525 -0.000994 -0.000966 -0.00143 -0.001401 -0.00186 -0.001829 -0.002283 -0.002251 -0.002699 -0.002666 -0.00311 -0.003075 -0.003515 -0.003478 -0.003916 -0.003878 -0.004311 -0.004272 -0.0047 -0.004659 -0.005081 -0.005039 -0.005455126697529332 -0.005410335184885085 -0.0058200291501729826 -0.005774639046984069 -0.006178786676978847 -0.006131482007522458 -0.006531681294081803 -0.006481288699784659 -0.006876355178018986 -0.006824837633248013 -0.007214772121097206 -0.007162199550243027 -0.007548144722946346 -0.0074926107126051964 -0.007873545758163472 -0.007817963315780592 -0.008193961986955954 -0.008136327252336782 -0.008508416240701469 -0.008448965426471423 -0.008817693844605928 -0.008756674104911972 -0.00912098640598776 -0.009059287036242756 -0.009419071245793676 -0.00935551595761678 -0.009711419033860419 -0.009645809825855068 -0.009996671266530423 -0.009929944872988108 -0.01027688989416575 -0.010207308272376717 -0.010550341468042169 -0.010479708813548054 -0.010818629407132687 -0.010745958571121251 -0.011079712258537749 -0.011005758995230052 -0.011336064079795424 -0.011259689362700167 -0.011585584219185475 -0.011508172661853215 -0.011830123188624381 -0.011750536867421328 -0.012069356211146735 -0.011988884643448865 -0.01230510138459861 -0.012223834356029592 -0.012536647328269453 -0.012454657910359953 -0.012763802326504968 -0.012682137399195024 -0.012988261226870332 -0.01290560279781232 -0.013208337424013965 -0.013123040646386312 -0.013421177257023433 -0.013333994616876873 -0.013626472322913552 -0.013536131531144639 -0.013823605153703082 -0.013731297273339695 -0.014015129244462833 -0.013920455528320162 -0.014200119242884581 -0.01410424524786413 -0.014379802050538038 -0.01428168424027783 -0.014554953267556311 -0.01445519581897154 -0.014725346620205557 -0.014625285002568073 -0.014893866321243267 -0.014794245688401014 -0.015062007403993589 -0.014964310226205875 -0.015233254914923482 -0.015139436050037381 -0.015408260086879922 -0.015315889018399673 -0.01558213163402683 -0.015490512992857067 -0.015750717573606486 -0.01565653952500957 -0.015905701892414977 -0.01580303019174594 -0.016040013872010383 -0.015929321983379426 -0.01615222721366359 -0.016031246732623492 -0.01623902377566056 -0.016109214456926653 -0.016305221746120667 -0.016166569115833033 -0.016361544609150704 -0.0162291978408705 -0.016441910971249127 -0.016326399388310382 -0.01655406808737622 -0.016451282825744155 -0.016682270790440226 -0.01659036396760361 -0.016826435208697237 -0.01675246009405897 -0.01700181745890232 -0.016949274751928586 -0.017201859103098446 -0.017159419509782024 -0.01737842240380293 -0.017315476938518256 -0.017442855907728108 -0.017331778768275845 -0.017332248621336924 -0.017144399269343368 -0.017088629780543485 -0.016933746829230614 -0.01694772575150565 -0.016824091961186446 -0.016866347260309677 -0.016743777094810758 -0.016821997939550932 -0.016697505224753408 -0.016818548535864467 -0.016685050717299407 -0.016857846602589117 -0.01672341211854178 -0.016920845003453207 -0.01675965920585867 -0.016986620259637104 -0.01684908290622529 -0.017113792362148827 -0.01698360552735231 -0.017259633503485392 -0.017133236007899767 -0.017415002939253094 -0.017292 -0.017574 -0.017453 -0.017735 -0.017617 -0.017899 -0.017784 -0.018065 -0.017951 -0.018232 -0.018121 -0.018401 -0.018293 -0.018571 -0.018466 -0.018743002219533584 -0.018642062819694577 -0.018916003609535763 -0.018818136859039183 -0.019073180978344956 -0.018973630710118577 -0.019215414505220792 -0.01917026303814578 -0.019486656290362916 -0.019500287372402197 -0.019855077291887298 -0.01988503695896797 -0.020212959122043666 -0.020216115425281077 -0.02044248615990434 -0.020382030075148813 -0.020483899922705093 -0.020375279256205556 -0.02038361604286825 -0.020245350326500284 -0.020192419516709404 -0.02004520958448437 -0.019972227989909778 -0.01983218940250356 -0.019767495776514186 -0.01964602154075451 -0.019609108535735966 -0.01950052424894948 -0.019485628626221958 -0.019376103424914783 -0.0193814248994698 -0.01927328064061901 -0.019313155844649914 -0.01921306293617458 -0.019294274877837504 -0.019205877373609574 -0.019318795592100053 -0.019239635870568293 -0.019371749918577656 -0.019299703676195427 -0.019436835195506652 -0.01936772852629524 -0.01949969149207407 -0.019432509334161695 -0.01955242832038223 -0.01948447167485064 -0.01959136122107369 -0.019522920364590284 -0.01961794988363782 -0.01955041888309749 -0.019636147703626657 -0.019571230635901826 -0.019652092478375863 -0.019589615136795226 -0.019671213694848748 -0.019612304613819697 -0.019693802890142626 -0.019638346873104666 -0.019719798387714073 -0.019667945783675266 -0.01975072166263124 -0.01970368218141577 -0.019785414944773365 -0.019742604817949275 -0.019821664397767145 -0.019781897118316134 -0.019860452957993054 -0.01982528418416644 -0.019902966206648255 -0.019871370655249243 -0.0199477219197606 -0.01992038630229838 -0.019993664814437602 -0.019971027661961818 -0.020040135671665897 -0.02002172283209911 -0.020082889872815677 -0.020068306812813342 -0.020117210661883673 -0.02010651251052392 -0.020141003333741497 -0.02013394627822345 -0.0201548451261156 -0.020151573528240246 -0.020156369521362485 -0.02015725511608417 -0.02014496624117689 -0.020149699503681583 -0.02012202653935853 -0.020130595840398245 -0.020088737434637044 -0.02010125771439872 -0.02004717733217319 -0.020063575669724772 -0.019998456310015206 -0.020018977163299638 -0.019946168995920034 -0.019970903112389318 -0.01989370315225904 -0.01992293938809188 -0.019843838411789237 -0.019877826953095444 -0.01979772914906837 -0.019835076991362856 -0.01975341911744155 -0.019794866502033995 -0.01971288587396993 -0.019758045819877314 -0.019676133362441343 -0.01972464627894208 -0.0196434000001212 -0.019696423181689144 -0.019617014826320337 -0.019674483749433907 -0.019596634256928033 -0.01965739488022555 -0.019577459532491206 -0.01964086158071764 -0.019556026134928087 -0.01962153774445693 -0.01952989880348937 -0.01959741749535106 -0.01949815719111759 -0.019567703668697436 -0.01946091748664182 -0.019531756109445186 -0.019417295930271753 -0.01948889373087387 -0.01936801568757177 -0.01944003391098124 -0.01931199058350493 -0.019384278380948184 -0.019250405414506972 -0.01932534891526453 -0.019194781534112203 -0.019276371248674165 -0.019166068126353165 -0.01926007641652514 -0.019189356493563087 -0.019300366848200877 -0.019274680464757304 -0.01938823956181516 -0.019384976267683228 -0.019492894843698573 -0.01952134327107638 -0.019639395444315408 -0.01970650545027307 -0.019848001544312925 -0.01994464384968887 -0.020095715680381515 -0.020180235374887112 -0.020320949408419192 -0.020352455573100406 -0.02045736588028451 -0.020377713804779932 -0.02041202334007535 -0.02020089210899194 -0.020185615114082386 -0.019853624820349247 -0.019805766774239668 -0.019446818031253428 -0.019436845223784277 -0.01912646523315935 -0.019182108310871852 -0.01893390321904469 -0.01903394545086056 -0.018770448845369565 -0.018869302419888094 -0.01859000362642884 -0.01869199704179509 -0.01841 -0.018516 -0.018233 -0.018342 -0.01806 -0.01817 -0.017888 -0.018001 -0.017718 -0.017833 -0.017549 -0.017665 -0.01738 -0.017499 -0.017213 -0.017335 -0.017048 -0.017173001263269996 -0.01688728629303068 -0.017014871185735685 -0.016738266071939123 -0.0168720495078933 -0.016623679324450188 -0.016771630856548078 -0.01657900145406203 -0.0167274546323862 -0.016567429446092557 -0.01669537341161673 -0.016575722896875977 -0.016703738391659326 -0.0166228083265004 -0.016746117630626844 -0.01669401115567666 -0.016816207423145834 -0.016792246760537973 -0.01692286485533937 -0.016950498783428344 -0.01714551429865407 -0.017185734183083966 -0.017312920452983847 -0.0171894652508019 -0.017255294659060234 -0.01704689144758956 -0.017086527116411673 -0.016832536839115408 -0.01688274359316532 -0.016627338112432374 -0.016699984622888086 -0.01645783996911358 -0.016550455813730096 -0.01631158037162978 -0.016415931410861388 -0.016182343215281923 -0.01629828239756838 -0.01607763033115668 -0.01621070040817385 -0.01600919182948842 -0.016150509477591578 -0.015950896706590237 -0.016085677780471156 -0.015876924762456876 -0.015999737605087792 -0.015773744496640422 -0.015881808108689065 -0.015639289283192363 -0.01573702986482883 -0.015479756763095369 -0.015572373529192973 -0.015302963701774688 -0.015393047590790934 -0.015117551680443252 -0.015210452434841183 -0.014935669526132955 -0.015032339813307491 -0.014758229162677716 -0.014856663265820884 -0.014583673819423094 -0.01468443455825426 -0.014411247607678411 -0.014511936280839908 -0.01423718114338196 -0.014335438880857487 -0.014056545830708863 -0.01415409600678171 -0.013873202925254768 -0.013968649720945105 -0.013682762616744877 -0.013774737442870439 -0.013482455228516588 -0.013572186797814086 -0.013276709571623342 -0.01336505062485377 -0.013064441131403155 -0.013149234178601778 -0.012845364470380108 -0.012928416013858194 -0.012619905939889646 -0.012702600886866651 -0.012389623114291594 -0.01247171169331358 -0.012156721173261543 -0.012238695387471226 -0.011920661491519567 -0.012000708393623521 -0.011679021047916478 -0.011758379861443723 -0.011432189364205566 -0.01151056222418935 -0.011181128916201804 -0.011257203522079387 -0.010923351828446662 -0.010998940710572367 -0.010662333313030067 -0.010735632277060808 -0.010395380493265065 -0.010466192743593278 -0.010121131908310052 -0.010190417541962746 -0.009839924958844122 -0.009907077894102693 -0.009551785088640763 -0.009617268176126322 -0.009258355545751492 -0.009323029316065849 -0.008959361799814974 -0.009022156502474565 -0.008653938228152941 -0.008715071041548028 -0.0083435234628673 -0.008402967062855994 -0.008027862030065468 -0.0080854643380362 -0.00770648284195097 -0.007763000321693384 -0.0073779867007786985 -0.0074325245008355885 -0.007044561940426975 -0.007097084421852567 -0.0067040991022109045 -0.006754582451324992 -0.006357465118152647 -0.006405776549198883 -0.006002502907475869 -0.0060498215936891885 -0.005641839181851372 -0.005687397531891606 -0.005273031834593944 -0.005318 -0.004897 -0.00494 -0.004513 -0.004554 -0.004122 -0.004161 -0.003725 -0.003762 -0.003323 -0.003359 -0.002916 -0.002951 -0.002504 -0.002538 -0.002086 -0.002117 -0.00166 -0.001691 -0.001228 -0.001257 -0.00079 -0.000817 -0.000345 -0.00037 0.000107 8.3e-05 0.000565 0.000542 0.001028 0.001007 0.001498 0.001478 0.001973 0.001954 
0.018798 0.018795 0.01872 0.018718 0.018629 0.018626 0.018523 0.018519 0.018402 0.018399 0.018266 0.018263 0.018115 0.018111 0.017947 0.017943 0.017761 0.017758 0.017559 0.017556 0.017339 0.017336 0.017099 0.017096 0.016839 0.016836 0.01656 0.016557 0.016262 0.016259 0.015944 0.015941 0.015604 0.015602 0.015244 0.015241 0.014861 0.014859 0.014457 0.014455 0.014031 0.014028 0.013591 0.013589 0.013128 0.013126 0.012644 0.012642 0.012154 0.012152 0.01166 0.011659 0.011159 0.011157 0.010636 0.010635 0.010094 0.010093 0.00954 0.009539 0.008986 0.008985 0.008429 0.008428 0.007853 0.007852 0.007272 0.007271 0.006673 0.006673 0.006066 0.006066 0.005464 0.005463 0.004851 0.00485 0.004224 0.004223 0.003594 0.003594 0.002969 0.002969 0.00235 0.002349 0.001724 0.001724 0.001085 0.001085 0.000441 0.000441 -0.000193 -0.000193 -0.000816 -0.000816 -0.001427 -0.001427 -0.002047 -0.002047 -0.002676 -0.002676 -0.003313 -0.003313 -0.003943 -0.003943 -0.004559 -0.004559 -0.005159 -0.005159 -0.005764 -0.005765 -0.006371 -0.006371 -0.006973 -0.006974 -0.007567 -0.007567 -0.008146 -0.008147 -0.008727 -0.008728 -0.009293 -0.009294 -0.00984 -0.009841 -0.010386 -0.010387 -0.010919 -0.01092 -0.011447 -0.011448 -0.011961 -0.011962 -0.012456 -0.012458 -0.01293 -0.012932 -0.013387 -0.013389 -0.013829 -0.013832 -0.014259 -0.014262 -0.014673 -0.014676 -0.015066 -0.015069 -0.015438 -0.015441 -0.015788 -0.015791 -0.016117 -0.01612 -0.016426 -0.016429 -0.016713 -0.016716 -0.016979 -0.016982 -0.017227 -0.01723 -0.017456 -0.01746 -0.017669 -0.017672 -0.017863 -0.017866 -0.018041 -0.018044 -0.018201 -0.018204 -0.018344 -0.018347 -0.018471 -0.018474 -0.018584 -0.018586 -0.018682 -0.018684 -0.018765 -0.018768 -0.018835 -0.018837 0.018862 0.01886 0.018914 0.018912 0.018952 0.01895 0.018977 0.018977 0.018992 0.018992 0.018995 0.018996 0.018987 0.01899 0.018969 0.018972 0.018941 0.018945 0.018903 0.01891 0.018856 0.018865 0.018803 0.018815 0.018747 0.018764 0.018697 0.018718 0.018666 0.018691 0.018654 0.018682 0.018645 0.018675 0.01862 0.018649 0.018572897724749966 0.018604156916055724 0.018512740442291606 0.018546758061423082 0.0184467616649105 0.018481602584416817 0.018374954233457245 0.018409060993011518 0.018296430763062622 0.018332042537591 0.018213760848920325 0.018251149504945923 0.018129586608202325 0.0181679045826441 0.018042266814893525 0.018082634278410385 0.01795399219941528 0.017996150786425066 0.017863844139213866 0.017909770344114985 0.017775264568739766 0.017824312261085166 0.017686946885249844 0.017738441710634562 0.017596727351105082 0.017650383451946035 0.017504332125531638 0.017559434995679957 0.01740875212054159 0.01746569430369919 0.017310954658584385 0.01737103830202882 0.017212069888424476 0.017273759578230158 0.017110978362273505 0.01717423120138696 0.017007879720862217 0.01707290323505208 0.016902850214428142 0.016970440401221067 0.016797765278536898 0.0168680512681902 0.016693255421173742 0.016765688818151134 0.01658963361706585 0.016665746008872304 0.01648932600190962 0.016568740835572127 0.01639047321515579 0.016472937458581874 0.016292361533241494 0.016378877059168035 0.016193986093021015 0.01628289150379417 0.01609325128856308 0.016183102552353924 0.015987564328729203 0.016077919219325405 0.015877448661441133 0.015968320069380152 0.015764219346841312 0.0158567966619116 0.01565091004933081 0.01574548896009459 0.015537473472171338 0.015633834050119883 0.015423572329350967 0.01552315822271781 0.015312889250405706 0.0154154220910687 0.015206057325796461 0.01531236745179999 0.015104316561179052 0.015216488120637044 0.015010237034953688 0.015126580096048793 0.014918126779904407 0.015035686887265124 0.014822750180726185 0.014939981217736233 0.014717193659936916 0.014830143077838058 0.014598403079899925 0.0147078752464284 0.014466535442448216 0.014572219103060524 0.014323327981946419 0.014428545145448755 0.014177389696001687 0.014281742163033745 0.014031166169958854 0.01413969344488653 0.013897570750554774 0.014013777575017023 0.01378252660302106 0.013908084674395287 0.013691347822658961 0.01383120713109676 0.013632658292203389 0.013788479895306398 0.013604061599082817 0.013773427120322727 0.013588423346634362 0.013758333669963641 0.013546829015985272 0.013700331069680568 0.0134314472932276 0.013552954338500718 0.013213672728245971 0.013298386374944135 0.012904268170005482 0.012964479861913259 0.01258131395821447 0.012679360447227695 0.012427649282622322 0.012597609316425439 0.012395212949333188 0.012575641143532238 0.01235196370190803 0.012515529250190085 0.01226349817123859 0.012421822554288475 0.012170563325295767 0.012328792194470207 0.012091694651721642 0.01223675344858296 0.01199589439716353 0.01211413912364408 0.011885013267372685 0.012011257108975881 0.011815916499708888 0.01194347029169666 0.011770877782914744 0.01190333208696807 0.011744023095587457 0.011882 0.011728 0.011873 0.011719 0.011872 0.011718 0.011881 0.011725 0.011898 0.011736 0.011922 0.011752 0.011948 0.011767 0.011973 0.011771803943216622 0.011984145936579258 0.011772420981887218 0.012006124297230945 0.011786921390422771 0.01207109224300693 0.011904436979580817 0.012216004694174405 0.012000369913519137 0.01224531949012637 0.011936823478804232 0.012110063866527104 0.011673981307169156 0.011791061349335047 0.011260633154811968 0.011347103322483022 0.010795921844778372 0.010898434188860879 0.010379580540108181 0.01051428467442979 0.010056021737432006 0.010230882437216681 0.009827144144550543 0.010028188108677377 0.009668575145252782 0.0098896193148128 0.009554938671677938 0.009797911755726982 0.009475692922609065 0.009732606258906783 0.009382063713341268 0.009621246919301838 0.009224675794035044 0.009442839602117397 0.009019203780468943 0.009226494491360471 0.008788640090892124 0.008988944856848974 0.008541823274540304 0.008736065600316884 0.008278293628522235 0.008467927656440163 0.008000955909707558 0.008184681486378565 0.007708337235694972 0.007889346432533575 0.007406873927561138 0.007585295052166195 0.0070966353255466925 0.007274358697910678 0.006780795787501309 0.006957536255258593 0.006459047922028406 0.006635113269451814 0.00613099995125509 0.00630495389715125 0.005792495150396493 0.005964367128343113 0.005444251984395186 0.00561462909444159 0.005087541024397114 0.005255517443949961 0.004718651352074326 0.00488407662570198 0.004339209828934049 0.004503041440429337 0.003948711445727639 0.004111436382448007 0.0035468498315666345 0.003707574345239895 0.003133872374262322 0.003293401963356857 0.002708255891912747 0.002865664799132869 0.002267915363275392 0.0024247375405078205 0.0018137702074770997 0.0019678869594151162 0.0013430410909277466 0.001496888525362553 0.0008579974550611392 0.001011057646137819 0.0003580859525564982 0.0005108231770925931 -0.00015851653774412786 -5.843804137931738e-06 -0.0006760603852547849 -0.0005232016054732557 -0.0011781601987698683 -0.0010242093864884826 -0.0016638393275397363 -0.0015096308772870387 -0.0021359326421470986 -0.0019795886154939063 -0.0025923018952106326 -0.0024354636059948525 -0.0030342663737768214 -0.0028759080766584677 -0.003461858131050444 -0.003302103392713211 -0.0038776160230067735 -0.0037159557843513442 -0.004281676775567888 -0.004118084968960903 -0.00467347380415497 -0.004508587369867451 -0.00505492860150531 -0.004888239534482714 -0.005426469673344407 -0.005256310861090632 -0.005785944415236633 -0.005613462550088175 -0.006135170087699463 -0.005960885039071405 -0.0064753400898028435 -0.006300846813622291 -0.006808788857635195 -0.006632107043105442 -0.007134298983936896 -0.006956106020614393 -0.007452213691914409 -0.007272420053253628 -0.007761862240446885 -0.007580004619042492 -0.008061273031364754 -0.007877736537043196 -0.008353604435030249 -0.008166440852615682 -0.008635025018533046 -0.008446699065280144 -0.008909259134964412 -0.008717657617384023 -0.00917194390120311 -0.008974603483046675 -0.009417208248109014 -0.009214161026867378 -0.009644871705774312 -0.009430706204290014 -0.00983718681663726 -0.009600403073764375 -0.009955605432973238 -0.009683879405040712 -0.00999737211154747 -0.009735951182292372 -0.010058610418595862 -0.009830449584201054 -0.010171782121079727 -0.009970063451421263 -0.010353057222035621 -0.010185593938231381 -0.010630051642443059 -0.010501802894990888 -0.011018219422695782 -0.010930285039933492 -0.011493795942825175 -0.011407703417166275 -0.01195340462278877 -0.011845111446399617 -0.012303839185995981 -0.012113039919816462 -0.012412597138764893 -0.012155977423733458 -0.012375823220105253 -0.012067418375702068 -0.012240257765080833 -0.011952538626690176 -0.012167262079912885 -0.01193477219999006 -0.012143494141513386 -0.011932164503901556 -0.012129 -0.011925 -0.012102 -0.011906 -0.012068 -0.011884 -0.012033 -0.011862 -0.012 -0.011842 -0.011975 -0.011828 -0.011959 -0.011821 -0.011952 -0.011821 -0.011954 -0.011827013174916448 -0.011974462895003686 -0.011851310466181722 -0.012028667492741932 -0.011906333290610825 -0.012123536106964752 -0.012001973186355416 -0.012249279510031387 -0.012114609106225067 -0.012365826621491006 -0.01221908077306668 -0.012479750947516105 -0.012329898185716153 -0.012592351365864975 -0.012443064585309596 -0.012695928466778136 -0.012537280087636304 -0.012756082061181978 -0.012584174403250483 -0.012800494389511224 -0.012659749834423162 -0.013015274425431643 -0.012968528886607255 -0.013371538105414338 -0.013288587285458339 -0.013633349299613517 -0.013512233223021756 -0.01378606489864923 -0.013631837434330375 -0.013844608257617321 -0.013672038893568004 -0.013854102381181638 -0.013685697796954902 -0.013868708828060489 -0.013717030465225728 -0.013914902689046046 -0.013780218481043788 -0.013997620714579892 -0.013876532130050261 -0.014108075454361076 -0.013995196314330773 -0.014237665477634186 -0.014133075794216354 -0.014383853283211751 -0.014283538566847257 -0.014538952059475991 -0.0144373930850238 -0.01468924683992633 -0.014584947927362781 -0.014829419780270268 -0.01472080838178356 -0.014952676187468162 -0.014838612346226906 -0.015056888599227517 -0.014940916037050363 -0.01514975625989612 -0.01503385842779535 -0.015239249442740497 -0.015126057526411553 -0.01533243139402412 -0.015224099210562572 -0.015433207083220228 -0.01532956779645539 -0.015539790529387924 -0.015440823349148253 -0.01565120930122965 -0.01555523752428187 -0.015765724272419096 -0.015671304962738854 -0.015879710703197675 -0.015786711294460427 -0.015991158528701338 -0.015899446082155193 -0.016099010327370874 -0.016008148042721247 -0.016203740508706016 -0.01611410764039599 -0.01630449393274545 -0.016215939163315308 -0.016401628268360235 -0.016315348003597352 -0.016497763222632043 -0.016414893361503365 -0.016594057774059392 -0.01651495013186258 -0.016692558561556405 -0.016617283724119174 -0.016793147398294895 -0.01672048944405566 -0.016893700906502253 -0.01682471043306631 -0.01699463378065125 -0.01692871066281013 -0.017096078557317755 -0.01703275177762912 -0.01719944053617083 -0.017137995421486876 -0.017301768326898163 -0.01724255093793003 -0.017402068646766702 -0.017343967145212802 -0.017497955365686407 -0.01744116941412443 -0.01759071416257731 -0.017535106903635873 -0.01768084937351938 -0.01762734194597111 -0.01776825890460012 -0.01771783538629523 -0.01785435015542988 -0.017806445925918575 -0.017940274855549637 -0.01789651156111105 -0.01802789346436811 -0.017985734780390724 -0.018114376897847936 -0.018073982232971054 -0.01819841117138699 -0.018159894911963514 -0.018280187987138735 -0.0182436859103728 -0.01835974024532073 -0.018324045391974814 -0.01843522038086316 -0.01839957042887215 -0.01850455679556084 -0.018469569551144333 -0.018564947807097963 -0.01853151714023942 -0.018616248579921658 -0.018584 -0.018649 -0.018619 -0.018661 -0.018632 -0.018668 -0.018641 -0.01869 -0.018667 -0.018731 -0.018712 -0.018783 -0.018768 -0.018836 -0.018825 -0.018884 -0.018876 -0.018925 -0.018919 -0.018956 -0.018952 -0.01898 -0.018978 -0.018993 -0.018991 -0.018995 -0.018995 -0.018986 -0.018987 -0.018967 -0.018968 -0.018936 -0.018937 -0.018892 -0.018894 