# EXPORT MODE: CHECK_POINT
TITLE="GRID"
VARIABLES="X", "Y", "Z", "T", "Hw", "Hi", "HTC", "Beta", "TauX", "TauY", "TauZ"
ZONE T="ZONE 1"
NODES=2503
ELEMENTS=4968
DATAPACKING=BLOCK
ZONETYPE=FETRIANGLE
VARLOCATION=([4-11]=CELLCENTERED)
-0.00341018 -0.08171916 -0.03054348 -0.02490159 -0.01840568 0.01906794 0.0060412 -0.01346903 -0.03439324 -0.08431416 -0.04223354 -0.06330839 -0.07690395 -0.07225392 0.01298133 -0.03785728 0.00486894 -0.05718055 -0.04520907 -0.03376149 -0.05024227 -0.02121695 -0.05647295 -0.05280206 -0.04996034 -0.02974875 -0.00354389 0.00493049 -0.03908818 -0.056901 -0.04124488 -0.02647198 -0.02186697 -0.03699625 -0.06721659 0.04976006 -0.04918664 -0.04459038 -0.04368647 -0.02249195 -0.00651742 0.00037699 0.03402392 -0.0264679 -0.01753347 -0.00700126 0.00598623 0.00910072 -0.0354537 -0.0759832 0.03483844 -0.05265555 -0.04737894 -0.03893375 -0.02646894 -0.02236579 -0.01337343 -0.01219349 -0.00063364 0.00206568 -0.02274927 -0.01800208 -0.00780368 -0.00268438 -0.06387565 0.032434 -0.08806457 -0.04150371 -0.06445701 -0.03430319 -0.0229494 -0.01435471 0.00137731 0.0036285 0.00807238 -0.07266589 0.03799278 0.03849726 0.02150351 -0.07648133 -0.08724041 -0.04371996 -0.0406522 -0.04668618 -0.04407175 -0.03814411 -0.01987577 -0.01691125 -0.01624919 -0.01044654 -0.00430909 0.00781527 0.03795509 -0.07900379 -0.07977899 -0.0591297 -0.06569179 -0.03195166 -0.06937259 -0.0452255 -0.04187911 -0.03061484 -0.0247876 -0.02158886 -0.00024264 -0.08090051 -0.02999621 0.03551539 0.04331555 -0.06393854 -0.04448944 -0.0389799 -0.07908773 -0.00462473 -0.00149855 0.00519817 3.092e-05 0.0335683 0.0386863 -0.03438578 -0.00853083 -0.00044024 -0.09107873 0.04077548 0.04563688 0.02035885 -0.0141697 -0.01198759 0.00325145 -0.01239524 0.01381378 -0.07700431 -0.02800136 -0.0008548 -0.0380502 -0.01623134 -0.02537355 -0.06781859 -0.00430826 -0.00319589 -0.00642924 0.04231296 0.04851001 0.05041229 -0.03918559 -0.03444866 -0.01474603 0.00266452 -0.01399161 0.01965917 -0.03259716 -0.00215139 -0.05600139 -0.05470726 -0.05130794 -0.04197932 -0.03027249 -0.01138786 0.00695449 0.04301509 0.0406359 0.04618356 0.03755296 -0.07864073 -0.06199624 -0.00574998 0.00025369 -0.02054255 0.00431559 -0.04654958 -0.01742058 -0.01524219 -0.01028289 -0.00011289 -0.03630933 -0.0703258 0.0430231 0.04283111 0.0169816 -0.04212149 0.01632923 -0.08126416 -0.03225787 -0.01377495 0.00529296 0.00769625 0.00348306 0.00665325 0.04608657 0.05232729 -0.06189763 -0.00639347 -0.03521833 -0.03268988 -0.02924544 -0.00500245 0.01657396 -0.0893851 0.04571923 0.05453721 -0.04498945 -0.00424394 -0.07388009 -0.07403387 0.05040001 -0.05405689 0.02614811 -0.01073649 -0.04507884 -0.0383409 -0.02925558 -0.04731121 -0.01186603 -0.00637346 -0.00299353 -0.02578106 -0.01669256 -0.08412341 -0.07429408 -0.09429715 -0.03520709 -0.04949594 -0.03306416 -0.00731573 2.185e-05 0.00419344 -0.07725608 0.04107326 0.03741871 -0.05511138 -0.04274023 -0.06853119 -0.00994402 -0.00324792 0.01341438 -0.07350444 -0.07447183 -0.02585131 -0.03402294 -0.07540585 -0.03665841 -0.01779548 -0.01137866 -0.00010415 0.00273814 0.00556812 -0.06189586 -0.07264696 0.01579974 -0.01170342 -0.05892216 -0.05312132 -0.05074574 -0.04740182 -0.04505562 -0.03951765 -0.01524557 -0.01455779 -0.0059406 0.03717654 0.00239297 -0.09364421 -0.06393981 -0.04537646 -0.03650546 -0.03324434 -0.03080065 -0.00205785 0.00818481 -0.01295337 -0.07808147 -0.02658093 -0.0824716 -0.02753848 0.00125564 0.00615083 -0.06243324 -0.05986717 -0.05523834 -0.0540004 -0.05002702 -0.04199612 -0.03935794 -0.08616148 -0.08672301 -0.0224137 -0.01699318 -0.01240601 -0.00744421 -0.0021452 -0.07571822 -0.07705666 -0.06112104 -0.03753854 -0.00205167 -0.06499215 -0.05786195 -0.04568108 -0.03502264 -0.02998201 -0.08889226 -0.0191353 -0.08348971 -0.0701128 -0.03552632 -0.07083139 0.04513381 -0.0536167 -0.04900084 -0.03674488 -0.0108726 -0.00384502 -0.04902007 -0.0429144 -0.05768453 -0.02541173 0.01901223 -0.0594986 -0.05693105 0.00357656 -0.01668335 -0.00849808 0.00350782 -0.0283987 -0.07656583 0.01786943 -0.0403421 0.00591057 -0.08577755 -0.05037223 -0.04443413 -0.04205639 -0.03305846 -0.02924191 -0.00689641 -0.00662106 -0.00124391 0.0094076 0.04019481 -0.08622713 -0.08949549 -0.06713216 -0.05293564 -0.03674491 -0.01362611 0.02333713 -0.03705379 -0.07369669 -0.06559238 -0.05899738 -0.03323891 -0.03183499 -0.02002217 -0.01121383 0.03910844 0.0286757 -0.06894021 -0.06261511 0.03044456 -0.01524109 -0.00562217 0.00479899 -0.0682824 -0.05562373 -0.05190103 -0.04880903 -0.04541156 -0.04451455 -0.03943032 -0.03564224 -0.00012246 0.00951046 0.02144166 -0.00898303 -0.07301905 -0.06476043 -0.06936851 -0.06011714 -0.02924169 -0.02656143 -0.01439403 -0.00886916 -0.00121887 0.0040479 -0.00460194 -0.07843646 0.01077461 -0.05662373 -0.03629887 -0.02437993 0.0109155 -0.00586227 0.01697345 -0.06723198 -0.05499421 -0.04861799 -0.055369 -0.09424355 0.01324299 0.02063929 0.00734297 -0.01349387 -0.02011064 -0.06943845 -0.06402805 -0.05199635 -0.04399088 -0.03973825 -0.03593149 -0.0308676 -0.02834207 -0.02562258 -0.08523662 0.0071936 0.00965092 0.0134871 0.00773898 0.00080905 -0.07265257 -0.00560094 -0.02630372 -0.04759043 -0.04146083 -0.03358207 -0.02287024 -0.02236197 -0.01887051 -0.07143369 -0.07300115 -0.06846643 -0.07468381 -0.06495896 -0.0789317 -0.07411355 -0.07045693 -0.05905876 -0.04918733 -0.02915118 -0.01159972 0.00514504 -0.0514957 -0.02021821 0.00425159 0.0168328 -0.02566108 -0.07214195 -0.06498457 -0.06065248 -0.05530898 -0.04424324 -0.01551334 -0.00763232 -0.00780469 0.00971632 0.03030039 -0.04749691 -0.03897895 -0.02586931 -0.01805793 -0.01518003 -0.00389815 2.682e-05 0.01197835 0.01500497 0.02648806 -0.03622563 -0.02112678 -0.01281981 0.00528479 0.00894037 -0.05183967 -0.05420137 0.01322625 -0.06938241 -0.06769104 -0.0637824 -0.05074939 -0.00939362 0.00117601 0.00980203 0.02013129 -0.00278728 -0.05499689 -0.04596674 -0.04232454 -0.03216124 -0.03077018 -0.01160861 -0.02942832 -0.08004357 -0.04979743 -0.04372385 -0.05798174 -0.04149118 -0.02492983 -0.02088169 -0.00755197 0.00376672 -0.06282962 -0.05919595 -0.05107908 -0.07394537 -0.07214624 -0.01940887 -0.05553045 0.01668846 -0.05227733 -0.06920138 0.02657921 -0.02357431 -0.00737751 0.01323466 0.01948735 -0.06395393 -0.04957947 -0.04332365 -0.0290472 -0.00173431 -0.03135813 0.0025822 -0.0568023 -0.05646433 -0.05096475 -0.05098041 -0.02564741 -0.02254211 -0.01761801 -0.01971175 0.02378007 0.01474429 0.02169136 -0.06406724 0.02031915 -0.036425 -0.01498117 -0.05733534 -0.05417256 0.02262521 0.02881052 -0.04276416 0.00922319 0.01504821 -0.06375729 -0.03407043 -0.0821915 -0.06629942 -0.0155101 0.01892802 0.0258218 0.0272687 -0.04530134 0.02385576 0.02163267 0.04378536 0.04807479 0.05266309 -0.05272245 -0.03007161 -0.03450805 0.01062971 0.01674344 0.02882705 -0.0599371 -0.03675209 -0.03788539 -0.02204779 -0.02436462 -0.04488228 0.02699676 0.04773575 0.05170379 -0.06750436 -0.01625752 -0.0639263 -0.04166529 -0.03520323 0.04131877 0.01405522 0.01942122 0.02367799 0.03425813 0.05595734 -0.03993796 -0.0469888 -0.02770837 0.01920463 0.021886 0.03128627 0.04666116 0.05182373 -0.02926488 -0.06870077 -0.05607006 0.04471785 -0.04180409 -0.06836934 -0.06411481 -0.01838313 0.0117454 -0.05937536 0.05909208 0.04354774 -0.02629178 0.01490478 0.0242862 0.02895261 -0.04950777 0.04082479 0.0177748 0.03357384 0.03638504 -0.06420501 -0.0654245 0.05080134 0.05667175 -0.04934993 -0.06976057 0.01953706 0.02701391 0.05767943 -0.05691654 0.02346928 -0.05829864 0.00645984 0.01040602 0.02318395 0.03304036 -0.06434822 -0.05703144 0.05445156 -0.0301344 -0.0370771 -0.05603276 -0.06767647 0.00999117 0.01452151 0.03005174 0.03751917 0.05394401 0.0591199 -0.02436639 -0.01325342 0.03921874 -0.01796898 0.02190239 0.03534175 -0.06214562 0.05682062 -0.03280004 0.01121214 0.01291959 0.02012695 0.03597176 0.03990694 -0.06670235 -0.04160143 0.03304458 0.0246721 0.02610866 0.03336394 0.04291579 0.05471496 -0.01653094 -0.0178916 0.04111812 0.02338677 0.0381029 0.01014524 0.05839241 0.03830205 0.03412644 -0.03135574 -0.05825951 -0.06681723 -0.06809004 0.0165683 0.02936287 0.03702718 0.05641273 -0.06129574 0.0083873 0.01180703 0.02974173 0.03629441 0.03989968 -0.06276313 -0.01581544 -0.09226899 -0.00094964 -0.06371292 -0.06109602 0.02099187 0.02565853 0.03297856 0.04215613 -0.05551686 -0.04080229 -0.00625465 -0.01098682 -0.03035142 0.02611092 -0.06559994 0.02881466 0.01526328 0.0289824 0.04487254 -0.07822523 -0.04609494 -0.05236903 -0.0215921 0.01717677 0.0226875 0.03547204 -0.08948084 -0.05321673 -0.03777678 -0.09054938 -0.06336658 0.01407427 0.01810979 0.04220994 -0.05211593 0.02906309 -0.05473146 0.02590364 0.03129876 0.03844617 0.04635167 -0.04765656 -0.01144743 -0.03664724 -0.04665353 -0.04556989 0.04143888 -0.06428742 -0.06112889 -0.04784354 -0.04953683 -0.07113538 0.01011387 0.01789745 0.02174085 0.02527159 0.03088504 -0.06244193 -0.06216506 0.02065726 -0.0636028 0.01442402 0.02877934 0.04445013 0.04554199 -0.04966581 -0.02917729 -0.05820313 0.03899705 -0.0547258 0.01318912 -0.0199263 0.02015313 -0.05585994 0.01804526 -0.06375713 -0.01852762 0.0287344 0.04141401 0.02441173 0.02092518 0.03044501 0.03303009 0.03697509 -0.07772146 0.02925 -0.05307818 -0.06299059 -0.06539832 0.03337391 0.03841359 -0.06194593 -0.02287648 0.04376623 0.03929153 0.01093623 0.02410872 0.03675839 -0.05194164 -0.03158211 0.00764059 0.01677102 0.03440461 0.03614382 0.04125883 0.02476614 -0.02260159 -0.01289367 -0.02493915 -0.04846863 0.01253449 0.02587286 0.03275647 -0.02334362 -0.09259497 -0.07431484 -0.09249923 -0.07737826 -0.09290734 0.02842334 0.03525168 0.01576056 0.03878553 -0.06151122 -0.06814512 -0.02061671 0.01513719 -0.05071827 0.03016869 -0.0874265 -0.06001039 -0.05860331 0.03241165 -0.07591778 0.01859657 0.0172098 0.04432654 0.03833591 0.02219292 0.01963602 0.02368212 0.04669328 0.02162111 0.01663861 -0.09025398 -0.09059387 -0.06254169 -0.01109194 -0.06226313 -0.04227676 0.04329341 0.04377959 0.02169699 -0.0111837 -0.06237257 -0.00924893 0.0414774 -0.08126871 0.04957568 0.05298796 0.02197754 0.0185057 -0.0351005 0.04874913 0.0319129 -0.01422252 -0.04866364 -0.00958372 0.05280185 0.0514338 0.02391124 0.02456706 0.02035681 -0.02188242 -0.0538318 0.05411421 0.05673057 0.04594182 -0.08381776 0.02920777 0.02845492 0.02663726 0.02204011 0.01912008 -0.0157822 -0.06251417 -0.0623456 0.04559818 -0.04942261 -0.08276186 -0.05216622 -0.06361674 -0.05149269 -0.06151758 0.05652487 0.0552579 0.05031813 -0.06268195 0.05652015 0.05690798 0.05285416 -0.03892114 0.0297407 -0.06879619 0.05882602 -0.02616057 -0.05334196 0.05817739 0.05979814 0.05454987 0.02677546 -0.00869604 -0.07703956 -0.06306989 0.03570669 0.03260038 0.02973996 0.05923853 0.05742175 0.02906299 -0.01722441 -0.08591138 0.06059493 0.05953164 0.05730647 0.03882938 0.03066277 -0.02776207 -0.08819459 0.0607788 0.03591508 0.02425186 -0.06195439 -0.09055793 -0.08846922 0.05955801 0.03094044 -0.09357575 -0.09318982 -0.00922961 -0.08173946 -0.03699275 0.06009357 0.05983724 0.04070618 0.03474594 -0.06187966 -0.07653781 0.03811107 0.03190934 -0.08315935 -0.0870559 -0.07144833 -0.08563211 0.06072897 0.03990965 0.03498179 -0.09182203 -0.06242542 -0.07116895 -0.05036476 -0.05049265 0.05988667 -0.06140699 0.02499074 -0.07485275 -0.06222569 -0.06200194 0.05837457 -0.03612504 0.02921651 -0.0416817 -0.07422655 -0.00978457 -0.08957795 -0.06231193 0.04351477 -0.04843435 -0.08931316 -0.07423019 0.0373786 0.02632181 -0.04802362 -0.09201958 -0.07130551 -0.06205929 -0.00970153 0.04334214 0.04177246 0.03350541 0.029665 -0.02946016 -0.08639644 -0.0549107 0.04420381 0.04326435 0.01309699 -0.06706921 -0.09082168 0.04562 -0.0930398 0.04463559 -0.01124339 0.04551119 0.04625272 0.04028164 0.0432182 -0.05110827 0.04469298 0.04342254 0.04075136 -0.08561303 0.04072147 0.03553808 -0.09273651 -0.06227852 0.04496022 0.03781474 0.03386449 -0.09104428 -0.07400445 -0.06176865 -0.04974745 0.04106544 -0.07291636 -0.09094969 0.04287905 -0.07245548 -0.07586294 -0.08526982 -0.07702557 0.04628088 0.04210691 0.03652388 -0.03742022 -0.08514891 -0.0633133 -0.06159141 0.04591854 0.04463114 -0.04484287 -0.06412418 -0.0670703 -0.06479376 -0.06437103 -0.07038153 -0.07526927 -0.01627309 -0.06211615 -0.05601079 -0.03727792 -0.0741587 -0.07903996 -0.07250553 -0.06773818 -0.00753469 -0.05957562 -0.07738271 -0.08149667 -0.07222332 -0.0137085 -0.04346534 -0.06910365 -0.07374808 -0.06819241 -0.06005285 -0.02345949 -0.07277722 -0.07659558 0.01390641 -0.08636751 -0.03135885 -0.04910459 -0.04293064 -0.06532035 -0.03760649 0.00950784 -0.00179768 0.00362317 -0.0926747 -0.06573972 -0.08656194 -0.07073153 -0.00808407 -0.04428625 -0.07022226 -0.01521069 -0.01727075 -0.08356095 -0.08813028 -0.08839924 -0.06778055 -0.00658646 -0.08874618 -0.07720673 -0.09317648 -0.02350685 -0.06654665 -0.069136 0.05718027 -0.07539087 -0.03182884 -0.00898888 0.03432588 -0.08141495 -0.02329883 -0.06164166 -0.08882645 0.05837313 -0.04304563 0.03083572 -0.08863127 -0.09171514 -0.07208378 -0.06954063 0.06007869 -0.04008106 0.03281993 -0.07282322 -0.08527021 -0.07605132 -0.08653773 0.05588848 -0.05464236 0.03672996 0.03150187 -0.07875155 -0.08940816 -0.02089113 -0.07086356 -0.07091976 -0.03077129 -0.05445418 -0.00155395 0.02913055 0.02572594 -0.08931897 -0.0754295 -0.02859602 0.02106978 -0.09224076 0.00240946 -0.05662762 -0.0572648 -0.03645207 -0.07410816 0.05153713 -0.06609604 0.036102 0.01671521 -0.08076792 -0.0917576 -0.08682494 -0.0658081 -0.07821734 -0.07256706 0.05843996 0.05684756 0.05491939 0.0474469 0.01231936 -0.07979064 -0.07665521 0.02174732 -0.07526049 -0.02591961 -0.06798379 0.01683111 0.05401649 0.05052275 -0.05958244 0.0253435 0.01926275 -0.09075852 -0.04654849 -0.02410695 0.00867844 0.00249192 0.05734515 -0.08532984 0.03287732 0.02424663 -0.04776565 -0.06354183 -0.0666052 -0.06850422 -0.07275916 0.04820685 -0.02738318 -0.0450775 0.02925315 0.01367761 0.00842109 0.00096836 0.0030802 -0.05242017 -0.07035972 0.05435939 0.04516144 0.01932044 -0.09328121 -0.08740506 -0.02285164 -0.06209937 -0.04585156 0.05078167 -0.08960727 -0.05332305 -0.01522708 0.03366354 0.02400026 -0.08416684 -0.03622359 -0.03918958 -0.03367405 -0.07448862 -0.04675562 -0.08497041 -0.01086621 -0.0031074 -0.08876054 -0.06481132 -0.06430026 -0.06672702 0.01983851 -0.03867051 -0.07689009 -0.07253973 -0.06920905 -0.06416081 -0.06680415 -0.06292835 -0.07175223 -0.06517138 -0.06639203 -0.06455872 -0.06014579 -0.06031843 -0.03675631 -0.03949475 -0.07201603 -0.07169363 -0.07116595 -0.0690003 -0.06725342 -0.06112567 -0.03917968 -0.03514596 -0.02895094 -0.0182239 -0.06691626 -0.06375464 -0.06441576 -0.08585634 -0.03750113 -0.03433397 -0.03117289 -0.06999732 -0.08037933 -0.02627316 -0.03750145 -0.0261775 -0.06963725 -0.06715651 -0.08740551 -0.02394438 -0.06090236 -0.03121788 -0.07572944 -0.06242532 -0.06105166 0.02585506 -0.07764496 -0.06038127 -0.02498201 -0.03445385 -0.02984291 -0.01511958 -0.06730647 -0.05785299 -0.05181526 -0.05517413 -0.07884915 -0.02722907 -0.07553688 -0.03615128 -0.02543922 -0.08005037 -0.05251364 -0.03204356 -0.03148777 -0.0203215 -0.07214504 -0.0536442 -0.08240389 -0.04975442 -0.03233206 -0.02312295 -0.08634714 -0.05771311 -0.08697036 -0.09223775 -0.0158628 -0.02772004 -0.08591877 -0.07509736 -0.08943084 -0.05328835 -0.05016872 -0.08598605 -0.06993725 -0.05039932 -0.08329898 -0.02917482 -0.08876373 -0.07769346 -0.08341814 -0.05606751 -0.07893563 -0.06790277 -0.04411124 -0.0866051 -0.09265428 -0.05088731 -0.04976341 -0.08977133 -0.02805424 -0.02586708 -0.0837022 -0.08145547 -0.05145855 -0.0785977 -0.05290982 -0.0529785 -0.05213064 -0.0477145 -0.08353979 -0.01834 -0.08006981 -0.08381225 -0.05543665 -0.08222768 -0.02418758 -0.02535315 -0.09113211 -0.04607629 -0.08782928 -0.08699064 -0.0157159 -0.08380358 -0.06278668 -0.08103384 -0.08856354 -0.02026838 -0.01261963 -0.07049119 -0.08388252 -0.05656035 0.00994449 -0.05592825 -0.07600326 -0.08379885 -0.08825211 -0.07912672 -0.08820623 -0.08911033 -0.01932136 -0.05826563 -0.02704631 -0.0214163 -0.007824 -0.02398834 -0.06048358 -0.08638915 -0.07408436 -0.0205806 -0.0838375 -0.02293396 -0.08615362 -0.06572859 -0.02148109 -0.0764239 -0.07721601 -0.08415083 -0.08122144 -0.081704 -0.08625273 -0.08094497 -0.07890835 -0.07344016 -0.05267578 -0.07644067 -0.02179114 -0.08836094 -0.02407887 -0.02001809 -0.08357775 -0.01465595 -0.02739594 -0.04193358 -0.0316939 -0.0278902 -0.0737904 -0.04612416 -0.02741265 -0.04553288 -0.04499303 -0.04646261 -0.08836646 0.05174624 -0.07038525 -0.06092317 -0.07769672 -0.04379321 -0.07758718 -0.04054188 -0.04421585 -0.06663488 -0.06924212 -0.07564069 -0.06308703 -0.07230302 -0.04105149 -0.04699058 -0.08955969 -0.07698734 -0.07012167 -0.06479261 -0.04214806 -0.0480697 -0.04215048 -0.06731516 -0.07338664 -0.05535277 -0.06006777 -0.06548846 -0.0800664 -0.0440313 -0.04518651 -0.08310943 -0.0654728 -0.07542773 -0.05447342 -0.0624641 -0.0628326 -0.06353813 -0.06025526 -0.06324205 -0.06224943 -0.09100365 -0.05709413 -0.05727649 -0.0395199 -0.08964111 -0.09260143 -0.09228086 -0.03395731 -0.09019954 -0.05851589 -0.07172356 -0.05238982 -0.05941435 -0.05752062 -0.08095914 -0.051904 -0.05183005 -0.0776504 -0.03741645 -0.07887611 -0.05763542 -0.05262544 -0.05299872 -0.0735026 -0.05442072 -0.05231274 -0.07912993 0.00941157 -0.0327157 -0.03113338 0.04599733 0.03352546 -0.05504716 -0.05689789 -0.0502905 -0.05059517 -0.05188742 -0.06768448 -0.03027144 -0.00910873 -0.05706936 -0.03274838 -0.02900958 -0.03138313 -0.05567396 -0.05091605 -0.08887538 -0.07715305 -0.07857777 -0.02754591 -0.05446366 -0.08704141 -0.09000934 -0.09223262 -0.04863998 -0.05406648 -0.05743409 -0.08679473 -0.09298953 -0.09128203 0.02181502 -0.02964712 -0.03128953 -0.05900216 -0.0902417 -0.06156942 -0.06607018 -0.02453993 -0.01613175 -0.03080939 0.01046428 -0.05749163 -0.08914646 0.00437145 -0.09037704 -0.09079545 -0.09423771 -0.09033691 -0.04508261 0.01134801 -0.03922792 -0.06550953 -0.07740951 -0.04858001 -0.07692291 -0.06775058 0.05290641 -0.02905482 -0.03106692 0.02424972 -0.05547366 -0.06664285 -0.07820032 -0.01832068 0.02171297 -0.06838264 -0.02544562 -0.02654033 -0.02842571 -0.03260575 -0.07087229 -0.06978053 -0.03032487 -0.03297737 0.01353349 0.04440853 -0.0021999 -0.0720285 -0.07869963 -0.08321197 -0.08743906 0.02634802 -0.07490149 -0.05457635 -0.07324252 -0.07455096 -0.02868068 0.0173729 -0.08125743 -0.0749823 -0.0915565 -0.00082448 -0.07761883 -0.07985879 -0.08162747 -0.07367929 -0.09130982 -0.09085014 -0.06854389 -0.02725396 0.02144358 -0.0790612 -0.0820635 -0.08373658 -0.09020572 0.00084818 -0.07457755 -0.02908746 -0.03118402 -0.03260662 -0.08057599 -0.08949102 -0.07738841 -0.07289616 0.00713465 -0.03450261 -0.08389074 -0.08374048 -0.08620462 -0.0860615 -0.08154276 0.02666617 -0.07604143 -0.09001211 -0.07115651 -0.03321096 -0.07326309 -0.07928595 -0.08603451 -0.08433541 -0.07135146 -0.07354845 0.01673262 -0.03097877 -0.06235924 -0.01758787 -0.08235405 -0.07857891 -0.02893108 -0.03122571 -0.03325868 -0.0446974 -0.07972374 -0.08504216 -0.0867764 -0.08667467 -0.08510625 -0.07697576 -0.08277639 -0.08618044 -0.09116082 -0.0746388 -0.0834485 -0.0758047 -0.07492414 -0.05231444 -0.03073405 -0.03259056 -0.08645483 -0.01250182 -0.08858588 -0.08560975 -0.08751121 -0.06011354 -0.0882842 -0.08881256 -0.08800107 -0.08699111 -0.07460999 -0.03470791 -0.0849649 -0.08809145 -0.09149047 -0.09438042 -0.02916453 -0.03055779 -0.07777055 -0.08072826 -0.08327254 -0.08939871 -0.08969839 -0.07713489 -0.05112141 -0.08644296 -0.06960559 -0.08726518 -0.08908625 -0.08961234 -0.08273246 -0.07261837 -0.07767723 -0.01507806 -0.07105728 -0.09233192 -0.0760467 -0.08294281 -0.01041117 -0.02933114 -0.03721825 -0.01242992 0.00665096 -0.00641199 0.01580015 0.02910274 0.04208069 0.02872312 -0.01998764 0.03374835 -0.01868568 0.00641549 0.05630521 -0.00536083 0.04576943 -0.01009087 -0.06045852 0.01293394 0.01523568 -0.03089295 -0.01776619 -0.01303489 -0.07120655 0.0179048 -0.03362349 -0.04990684 -0.00668781 -0.01545147 -0.0306039 -0.01322027 -0.04785945 -0.01309899 -0.06311734 -0.05513975 -0.01109677 -0.0265689 -0.00663966 -0.0569964 0.01907655 0.01347309 -0.02173049 -0.01714217 -0.05869811 0.00356411 -0.00853698 -0.01217198 -0.06111398 -0.02957062 0.03053011 -0.0317141 -0.01369113 0.01162084 -0.06199357 0.03668402 0.04851267 -0.00046583 0.01674717 0.00698324 -0.04322683 -0.00835625 -0.01235441 0.04683447 0.02531917 -0.0424595 0.05774464 -0.05971053 -0.00320784 0.02702074 0.00710302 -0.03822568 0.02594154 -0.06129796 -0.05946667 0.01050661 0.03308134 0.01251784 0.02308799 0.03155543 0.00627231 -0.04091724 0.03540736 0.00941359 0.05373519 0.02562034 -0.03815026 -0.02821241 -0.06025359 0.01901688 0.00754467 -0.00707608 -0.0190475 -0.01695339 -0.00067307 -0.00901793 -0.06813618 -0.02360019 -0.05983122 0.05312407 -0.03693184 -0.05621514 0.03669588 -0.03588507 -0.00935695 -0.06012734 -0.03984279 0.0283222 -0.00187335 0.03864815 -0.00173592 0.05000082 0.05585896 0.02046152 -0.01516584 -0.07085954 0.02267403 0.03535884 0.01840092 -0.0254259 -0.00820851 -0.05681066 -0.03458864 -0.04025168 0.01638702 0.04263528 -0.0506872 0.00734468 -0.0197067 -0.01208304 0.04880593 -0.00308697 -0.05319879 -0.04729006 0.00446517 -0.00238501 -0.02483333 -0.0422969 -0.05438826 -0.05053938 0.00260403 -0.00781631 0.00651117 0.03474286 -0.0677877 -0.03371541 0.00446304 -0.02337017 -0.04898207 -0.00078164 0.00249604 0.00745533 0.02879114 -0.05359015 -0.04774363 -0.01961623 -0.06504737 -0.05170416 -0.05212427 -0.04533445 -0.00304712 0.00721296 0.01166932 0.0530564 -0.06302115 0.0282048 0.03440018 0.03097519 -0.04898439 -0.03282171 -0.05079286 -0.03530167 0.05645525 -0.01624045 -0.0169704 -0.05408812 -0.03419049 0.01369909 0.00088 -0.04645946 -0.0417355 -0.02100048 -0.01213045 -0.00438224 0.00140857 -0.0148462 -0.0213995 0.01200922 0.00382492 -0.05113956 -0.05481332 -0.02759704 0.01335987 0.00439193 -0.00684782 -0.01328026 -0.04767276 -0.04559012 -0.05009567 -0.06576664 -0.02345584 -0.0045918 -0.02495413 0.02900777 -0.00794688 -0.0168038 -0.06515615 -0.0470801 -0.06847063 0.03732685 0.03534987 0.00518207 0.01866066 -0.06051078 -0.06237434 0.02545695 -0.00022828 -0.00810884 -0.01736245 -0.02641667 0.00380645 -0.05823237 -0.06612237 -0.06095992 0.03135225 -0.0335409 0.01725278 0.01063766 0.00438431 -0.00825064 -0.01574841 0.02899033 0.00816864 -0.00096291 -0.00170334 -0.03153583 -0.03361965 -0.05075118 0.03689089 0.02497563 0.02456242 0.01396404 0.01337613 0.00373089 -0.0087947 -0.01375377 -0.02120084 0.03969354 0.0336274 -0.06535212 0.00128681 -0.00817975 -0.01718435 -0.02604945 -0.08474701 -0.05131687 -0.08250651 0.03866369 -0.07564316 0.02028447 0.0059436 -0.02552829 -0.03556267 -0.04281898 -0.0655936 -0.03415108 0.04367318 -0.05034241 0.02546418 0.01014979 -0.02204319 -0.03287552 -0.03761382 -0.04075063 -0.04638517 0.04447317 0.03320562 0.01567835 0.00683417 0.00214247 0.00059285 -0.00364814 -0.00942456 -0.01930215 -0.06108427 -0.04330976 -0.06108054 0.04757469 -0.03740303 0.01997249 0.00539748 -0.01060359 -0.03499829 -0.04647123 -0.06794536 -0.07104821 -0.00589038 0.01684214 0.01071104 -0.00118268 -0.00523259 -0.05170583 -0.05262636 -0.07259859 0.04433126 0.0384634 0.03883862 -0.00920154 -0.03526256 -0.03833645 -0.01772754 0.05000649 0.04613397 0.0151103 0.01031238 -0.00613534 -0.01231822 -0.01446691 -0.04665026 -0.05657208 -0.0792375 -0.07933479 0.02234 0.00762704 0.00331017 -0.01681188 -0.03249191 -0.03410824 -0.03389698 -0.03862358 -0.0450084 -0.05689601 -0.04485389 -0.07860955 -0.02373002 -0.02812293 -0.05007672 -0.03304842 0.01952039 -0.03886471 -0.04895294 -0.05399304 -0.04553056 -0.05091096 0.02324583 0.00974128 -0.00086614 -0.0085264 -0.0484515 -0.05232516 -0.05526535 -0.05904201 -0.05784676 -0.02711346 0.022832 0.01451906 0.01147133 -0.01773936 -0.06505975 -0.07582932 -0.04136235 -0.05614789 -0.06212611 -0.03729248 -0.01981892 0.00628811 -0.00592505 -0.01053863 -0.0353857 -0.0539945 -0.06385231 -0.06392088 -0.0269407 0.01961865 0.01227518 0.00542651 -0.00440842 -0.02191135 -0.04564315 -0.05167346 -0.05810518 -0.05699226 -0.08065111 -0.05654431 0.01775808 0.00649805 0.00075831 -0.01323595 -0.06739078 -0.03811952 0.00185274 -0.07595081 -0.01000199 -0.01797607 -0.02303599 -0.0261201 -0.06853542 -0.03526304 -0.04155818 -0.05283173 -0.06697885 -0.01024447 -0.07527265 -0.0873599 0.0087503 -0.06424952 -0.04435401 -0.04576258 -0.04795744 -0.05782263 -0.0720716 0.02547293 0.01571973 0.0048214 -0.00225286 -0.00738349 -0.02022534 -0.03401618 -0.03849337 -0.06439255 -0.06448066 -0.02385433 0.02210445 0.01553237 0.01157405 -0.01473156 -0.01601882 -0.05110362 -0.05798954 -0.06960838 -0.07599611 -0.03798766 0.01069621 -0.00534334 -0.02608199 -0.03916104 -0.06560988 -0.0701776 -0.07429136 -0.06342889 0.03068489 0.01930501 -0.00859921 -0.02320011 -0.03811782 -0.04423113 -0.0510255 -0.07059513 0.02814766 0.0076016 0.00495024 -0.01585835 -0.01850208 -0.07973935 -0.03098018 -0.0357498 -0.04894474 -0.05506586 0.023706 0.01225411 0.00185499 -0.00020857 -0.0004271 -0.00441016 -0.03320232 -0.03920697 -0.06035541 -0.04177183 -0.01120401 -0.0231815 -0.02723319 -0.03547018 -0.04486421 -0.05064789 -0.05552261 -0.08808961 -0.07203608 -0.03335978 -0.06683903 0.03073056 0.01622432 -0.06985563 -0.06383617 -0.06791482 -0.04575208 0.01172754 0.00733348 -0.00343565 -0.02696411 -0.03655337 -0.03879109 -0.05767694 -0.06258181 -0.07139534 0.01480157 -0.02116286 -0.01482425 -0.02328575 -0.05159565 -0.06948104 -0.07091721 0.03014532 -0.05557811 -0.00809811 -0.08120631 -0.01877217 -0.02110042 -0.02580991 -0.0489848 -0.03587487 -0.03316439 -0.02596402 -0.01671753 -0.00534863 0.00648435 0.01395035 -0.04246598 -0.0332411 0.00628135 -0.04426579 -0.02367146 -0.01155858 -0.00204064 0.00173239 -0.02731607 -0.01337108 0.00958873 -0.01498154 -0.00234743 0.00225443 -0.03519913 -0.02607545 0.00827406 0.01047364 0.01405538 -0.03697052 -0.00247195 -0.03948189 -0.04109151 -0.03158981 -0.02008631 -0.01111325 0.00445226 0.01587048 -0.047872 -0.04752164 -0.03340734 -0.02785147 -0.00850653 0.00645525 0.00741471 0.0119662 0.02041482 -0.01928878 -0.00113901 0.00381492 0.00752082 0.01996812 -0.0450584 -0.03075485 -0.05149981 -0.02375686 0.00397347 0.00954854 0.02908655 -0.0559652 -0.01952351 0.01636347 0.02132474 -0.0396703 -0.01425173 0.00232623 0.0140143 0.0153228 0.02375313 0.03236918 -0.0637159 -0.06426688 -0.0380666 -0.00943088 0.00396778 0.00942926 0.02985902 -0.05273006 -0.041271 -0.0031105 0.00621941 0.0208979 0.03560601 -0.06707834 -0.0008114 0.00314923 0.0049172 0.0251308 0.02824862 -0.06703297 -0.04638017 -0.0331634 -0.0320742 -0.02169269 0.02393075 0.04271912 -0.05860408 -0.0373144 -0.01042399 -0.00138969 -0.00030845 -0.0014089 0.0222529 -0.07096183 -0.06906618 -0.06482564 -0.04705966 -0.00369538 0.03347585 0.03724961 -0.04567594 -0.03863927 -0.00950641 0.0214998 0.04487646 -0.07247401 -0.07149813 -0.0277909 -0.01655641 0.00810435 0.02358946 0.04126135 -0.05135087 -0.0471043 -0.00141035 0.00091714 0.00288879 0.0132792 0.0143227 0.0174901 0.02986846 -0.039222 -0.0303071 0.02008123 0.02498901 0.03358413 0.04901572 -0.05822597 -0.06733083 -0.03469233 -0.0298032 0.00170238 0.04513702 -0.06887649 -0.05768056 -0.0532105 -0.0357116 -0.0288615 -0.0265805 -0.00109744 0.03504771 -0.06968546 -0.054019 0.00448168 0.00666055 0.0083833 0.0388831 -0.00264419 0.00322223 0.00900165 0.01319698 0.0222916 0.02894839 -0.08777347 -0.01787049 0.01008742 0.04229655 -0.08434134 -0.07379571 -0.05124334 -0.06177739 -0.0366651 -0.01493018 -0.08089452 -0.08982262 -0.06965551 -0.0784498 -0.07582414 -0.05574063 -0.0382796 -0.03528334 -0.02579807 0.00690643 0.01544899 0.01912823 -0.06366497 0.0396048 -0.08029431 -0.05418543 -0.07311021 -0.05899998 -0.05952073 -0.0627918 -0.0418955 0.00898082 0.00852878 -0.08980389 -0.06554542 -0.06464419 0.00524969 0.02025032 -0.0670064 -0.06447977 -0.05721963 -0.07436281 -0.062019 -0.04687082 -0.02081428 0.01643935 -0.06908716 -0.07181157 -0.06953877 -0.08486389 -0.09118878 -0.08882776 -0.07130283 -0.05487695 -0.07720888 -0.06124178 -0.06588565 -0.05788943 -0.05184771 -0.0348346 -0.0309847 -0.00496131 0.01222417 -0.07489822 -0.0804691 -0.07410756 -0.07900262 -0.06529708 -0.0336564 0.00493185 0.01134744 -0.06056926 -0.08897947 -0.06854352 -0.08271096 -0.04191321 -0.0112898 -0.00282619 -0.06456121 -0.05858144 -0.02332 -0.0181599 -0.0164714 0.00329066 -0.08522963 -0.08564473 -0.07453036 -0.07111297 -0.06114938 -0.04691227 -0.04076035 -0.0263231 -0.00318366 -0.07994049 -0.05971217 -0.0511766 -0.05012658 -0.07279013 -0.06851123 -0.03934321 -0.00813059 -0.06608067 -0.0686026 -0.0717221 -0.07511501 -0.06514665 -0.0368986 -0.00947804 -0.08517596 -0.0633664 -0.06663333 -0.05816759 -0.06421221 -0.05342579 -0.01803149 -0.01144041 -0.07516532 -0.07716839 -0.07280136 -0.078022 -0.06126337 -0.05440375 -0.04575428 -0.03383244 -0.02865763 -0.01530644 -0.06528365 -0.06646786 -0.06209598 -0.06327489 -0.04375572 -0.06569694 -0.06671365 -0.01048281 -0.06274451 -0.07041323 -0.06153038 -0.01145246 -0.06373114 -0.02821882 -0.01847127 -0.06670071 -0.04989641 -0.03144964 -0.06744766 -0.01090665 -0.0720836 -0.06423083 -0.06305664 -0.05304335 -0.03926941 -0.06479693 -0.06440032 -0.06617812 -0.06775143 -0.06473158 -0.02426559 -0.01572318 -0.07088766 -0.04434183 -0.06289681 -0.0637554 -0.06821456 -0.05027144 -0.02853559 -0.0658107 -0.0561792 -0.06886688 -0.06096542 -0.01389549 -0.069413 -0.0550398 