VARIABLES="X", "Y", "Z", "T", "Hw", "Hi", "HTC", "Beta", "TauX", "TauY", "TauZ"
ZONE T="POS1"
NODES=680
ELEMENTS=1242
DATAPACKING=BLOCK
ZONETYPE=FETRIANGLE
VARLOCATION=([4-11]=CELLCENTERED)
-5.718054999999999666e-02 -4.520906999999999704e-02 -5.280205999999999789e-02 -4.996033999999999892e-02 -2.974875000000000089e-02 -5.690100000000000019e-02 -4.124487999999999766e-02 -2.647197999999999912e-02 -2.186696999999999946e-02 -4.918663999999999675e-02 -4.459037999999999891e-02 -4.368646999999999808e-02 -2.249195000000000014e-02 -1.753346999999999892e-02 -5.265555000000000235e-02 -4.737894000000000133e-02 -3.893375000000000308e-02 -2.646893999999999983e-02 -2.236578999999999998e-02 -2.274926999999999852e-02 -1.800208000000000017e-02 -3.430318999999999729e-02 -2.294939999999999827e-02 -4.668618000000000073e-02 -4.407174999999999981e-02 -3.814411000000000190e-02 -1.987577000000000094e-02 -1.691124999999999920e-02 -4.187910999999999717e-02 -3.061484000000000080e-02 -2.478759999999999991e-02 -2.158886000000000138e-02 -4.448943999999999815e-02 -3.897989999999999788e-02 -3.438577999999999774e-02 -2.800135999999999944e-02 -3.918558999999999931e-02 -3.444865999999999900e-02 -5.600138999999999811e-02 -5.470726000000000061e-02 -5.130794000000000327e-02 -4.197932000000000052e-02 -3.027248999999999912e-02 -4.654958000000000012e-02 -1.742058000000000148e-02 -7.032579999999999387e-02 -3.225787000000000099e-02 -3.521832999999999908e-02 -3.268987999999999755e-02 -2.924544000000000102e-02 -4.498945000000000027e-02 -4.507884000000000196e-02 -3.834089999999999721e-02 -2.925557999999999978e-02 -2.578106000000000148e-02 -4.949594000000000216e-02 -3.306416000000000216e-02 -5.511138000000000148e-02 -4.274022999999999711e-02 -7.350444000000000422e-02 -3.665841000000000238e-02 -1.779547999999999894e-02 -5.892216000000000120e-02 -5.312131999999999965e-02 -5.074573999999999752e-02 -4.740181999999999729e-02 -4.505561999999999762e-02 -3.951765000000000139e-02 -6.393980999999999970e-02 -4.537646000000000041e-02 -3.650546000000000346e-02 -3.324433999999999723e-02 -3.080064999999999886e-02 -2.753848000000000060e-02 -6.243324000000000096e-02 -5.986716999999999733e-02 -5.523833999999999689e-02 -5.400039999999999701e-02 -5.002701999999999843e-02 -4.199611999999999790e-02 -3.935794000000000098e-02 -2.241370000000000168e-02 -1.699318000000000009e-02 -6.499214999999999853e-02 -5.786195000000000227e-02 -4.568107999999999891e-02 -3.502264000000000072e-02 -2.998200999999999991e-02 -1.913530000000000092e-02 -5.361670000000000325e-02 -4.900083999999999690e-02 -3.674488000000000060e-02 -5.949859999999999871e-02 -5.693104999999999694e-02 -1.668334999999999957e-02 -8.577754999999999408e-02 -5.037222999999999701e-02 -4.443413000000000224e-02 -4.205638999999999905e-02 -3.305845999999999785e-02 -2.924190999999999943e-02 -5.293563999999999908e-02 -3.674490999999999868e-02 -6.559238000000000568e-02 -5.899738000000000204e-02 -3.323891000000000345e-02 -3.183499000000000051e-02 -2.002216999999999886e-02 -6.261511000000000160e-02 -1.524109000000000054e-02 -6.828239999999999310e-02 -5.562373000000000317e-02 -4.880903000000000325e-02 -4.541155999999999665e-02 -4.451454999999999995e-02 -3.943031999999999787e-02 -3.564223999999999865e-02 -2.656143000000000046e-02 -7.143368999999999414e-02 -2.942832000000000087e-02 -8.004356999999999445e-02 -7.394536999999999638e-02 -6.920138000000000678e-02 -2.357431000000000110e-02 -4.957947000000000048e-02 -4.332364999999999827e-02 -5.646433000000000008e-02 -5.096475000000000311e-02 -2.564740999999999896e-02 -2.254211000000000062e-02 -1.761800999999999992e-02 -6.406723999999999752e-02 -1.498117000000000025e-02 -8.219150000000000067e-02 -1.551010000000000062e-02 -5.272244999999999709e-02 -2.770836999999999953e-02 -3.892113999999999990e-02 -6.879618999999999318e-02 -7.703956000000000692e-02 -8.173945999999999990e-02 -6.222569000000000017e-02 -6.200193999999999844e-02 -7.130551000000000250e-02 -6.706921000000000410e-02 -7.291635999999999951e-02 -3.742021999999999710e-02 -8.882645000000000124e-02 -2.285163999999999945e-02 -6.481132000000000559e-02 -6.430025999999999797e-02 -6.672701999999999800e-02 -7.253972999999999671e-02 -6.920904999999999418e-02 -6.416080999999999868e-02 -6.680415000000000658e-02 -6.292834999999999401e-02 -7.175223000000000018e-02 -6.517138000000000098e-02 -6.639203000000000465e-02 -6.455871999999999999e-02 -6.014578999999999759e-02 -6.031842999999999927e-02 -3.675631000000000037e-02 -3.949475000000000208e-02 -7.201602999999999477e-02 -7.169362999999999431e-02 -7.116595000000000559e-02 -6.900030000000000052e-02 -6.725341999999999432e-02 -6.112567000000000000e-02 -3.917968000000000145e-02 -3.514595999999999693e-02 -2.895094000000000140e-02 -6.375464000000000131e-02 -6.441576000000000246e-02 -3.750113000000000057e-02 -3.433396999999999838e-02 -3.117289000000000171e-02 -6.999732000000000176e-02 -2.627316000000000026e-02 -3.750144999999999867e-02 -2.617749999999999938e-02 -6.963724999999999776e-02 -6.715651000000000259e-02 -2.394438000000000122e-02 -6.090236000000000260e-02 -3.121787999999999993e-02 -6.242531999999999942e-02 -6.105166000000000065e-02 -7.764495999999999898e-02 -6.038127000000000077e-02 -2.498200999999999894e-02 -3.445385000000000114e-02 -2.984291000000000027e-02 -6.730646999999999325e-02 -5.785298999999999997e-02 -5.517413000000000178e-02 -2.722907000000000105e-02 -3.615128000000000091e-02 -2.543921999999999850e-02 -5.251364000000000032e-02 -3.204355999999999871e-02 -3.148776999999999826e-02 -7.214503999999999362e-02 -5.364420000000000299e-02 -4.975442000000000059e-02 -3.233206000000000274e-02 -8.634714000000000278e-02 -5.771310999999999802e-02 -8.697035999999999656e-02 -2.772004000000000135e-02 -7.509736000000000189e-02 -5.328834999999999822e-02 -5.016871999999999998e-02 -6.993725000000000636e-02 -5.039931999999999745e-02 -2.917482000000000061e-02 -5.606751000000000096e-02 -6.790277000000000118e-02 -4.411124000000000295e-02 -5.088730999999999810e-02 -4.976341000000000098e-02 -2.805424000000000112e-02 -2.586708000000000063e-02 -5.145854999999999874e-02 -5.290982000000000324e-02 -5.297849999999999782e-02 -5.213063999999999892e-02 -4.771449999999999997e-02 -8.353979000000000266e-02 -1.833999999999999866e-02 -8.006981000000000515e-02 -8.381225000000000480e-02 -5.543664999999999704e-02 -2.418758000000000019e-02 -2.535315000000000138e-02 -1.571590000000000140e-02 -8.103383999999999587e-02 -2.026837999999999904e-02 -7.049118999999999524e-02 -5.656035000000000229e-02 -5.592824999999999880e-02 -1.932135999999999923e-02 -5.826562999999999881e-02 -2.704631000000000049e-02 -2.398834000000000036e-02 -2.058060000000000098e-02 -2.293395999999999976e-02 -2.148109000000000129e-02 -7.721601000000000159e-02 -8.122144000000000585e-02 -5.267577999999999844e-02 -7.644067000000000223e-02 -2.407886999999999875e-02 -2.001808999999999880e-02 -2.739594000000000057e-02 -4.193357999999999808e-02 -2.741265000000000021e-02 -4.553287999999999780e-02 -4.499303000000000330e-02 -4.646261000000000141e-02 -7.038524999999999643e-02 -6.092316999999999871e-02 -4.054188000000000236e-02 -4.421585000000000099e-02 -6.663487999999999356e-02 -6.924212000000000422e-02 -6.308703000000000227e-02 -4.105149000000000298e-02 -4.699057999999999707e-02 -6.479261000000000048e-02 -4.215047999999999712e-02 -6.731515999999999889e-02 -5.535277000000000253e-02 -6.006776999999999950e-02 -6.548845999999999834e-02 -4.403130000000000238e-02 -4.518650999999999918e-02 -6.547279999999999767e-02 -5.447342000000000156e-02 -6.246410000000000157e-02 -6.283260000000000234e-02 -6.353812999999999822e-02 -6.025525999999999799e-02 -6.324204999999999410e-02 -6.224943000000000143e-02 -5.709412999999999988e-02 -5.727648999999999935e-02 -3.395730999999999750e-02 -5.851589000000000096e-02 -5.238981999999999667e-02 -5.941434999999999772e-02 -5.190399999999999875e-02 -5.183005000000000251e-02 -3.741644999999999693e-02 -5.763541999999999971e-02 -5.262544000000000249e-02 -5.299871999999999916e-02 -5.442071999999999882e-02 -5.231274000000000340e-02 -3.113337999999999869e-02 -5.504715999999999776e-02 -5.689788999999999958e-02 -5.029050000000000187e-02 -5.059517000000000181e-02 -5.188741999999999660e-02 -3.027144000000000015e-02 -5.706935999999999953e-02 -2.900958000000000009e-02 -3.138313000000000214e-02 -5.567396000000000150e-02 -5.091604999999999742e-02 -2.754590999999999984e-02 -5.446365999999999707e-02 -5.406648000000000009e-02 -5.743409000000000014e-02 -2.964711999999999903e-02 -3.128953000000000290e-02 -5.900215999999999794e-02 -3.080938999999999900e-02 -5.749163000000000190e-02 -2.905481999999999856e-02 -3.106692000000000134e-02 -2.544561999999999866e-02 -2.654033000000000087e-02 -2.842570999999999987e-02 -3.260575000000000279e-02 -3.032487000000000030e-02 -3.297736999999999891e-02 -7.202849999999999531e-02 -7.490149000000000112e-02 -5.457635000000000264e-02 -2.868068000000000006e-02 -8.125743000000000549e-02 -7.761882999999999977e-02 -7.985878999999999894e-02 -8.162746999999999364e-02 -7.906119999999999814e-02 -8.206349999999999756e-02 -8.373658000000000490e-02 -2.908745999999999901e-02 -3.118401999999999979e-02 -3.260662000000000282e-02 -8.057599000000000011e-02 -3.450261000000000300e-02 -8.389074000000000531e-02 -8.374048000000000602e-02 -8.620461999999999569e-02 -8.606149999999999911e-02 -8.154276000000000579e-02 -3.321095999999999770e-02 -7.326309000000000293e-02 -7.928594999999999393e-02 -8.603450999999999460e-02 -8.433540999999999954e-02 -3.097876999999999922e-02 -8.235404999999999809e-02 -2.893108000000000138e-02 -3.122571000000000027e-02 -3.325867999999999880e-02 -7.972374000000000127e-02 -8.504216000000000553e-02 -8.677640000000000353e-02 -8.667466999999999533e-02 -8.510624999999999440e-02 -7.697576000000000418e-02 -8.277639000000000524e-02 -8.618043999999999705e-02 -3.073404999999999887e-02 -3.259055999999999759e-02 -8.645482999999999640e-02 -6.011354000000000003e-02 -8.828419999999999324e-02 -8.881255999999999873e-02 -8.800107000000000068e-02 -8.699110999999999649e-02 -3.470791000000000154e-02 -8.496489999999999598e-02 -8.809145000000000170e-02 -2.916453000000000101e-02 -3.055779000000000134e-02 -7.777054999999999385e-02 -8.072825999999999613e-02 -8.327254000000000600e-02 -8.939871000000000623e-02 -8.726517999999999775e-02 -8.908625000000000571e-02 -8.961233999999999866e-02 -7.604669999999999486e-02 -8.294281000000000570e-02 -3.089294999999999888e-02 -7.120654999999999346e-02 -3.060389999999999985e-02 -2.656889999999999946e-02 -3.171410000000000201e-02 -4.322683000000000081e-02 -5.971052999999999777e-02 -6.129795999999999856e-02 -4.091724000000000055e-02 -3.815025999999999834e-02 -5.983121999999999746e-02 -3.693184000000000050e-02 -7.085953999999999864e-02 -2.542590000000000128e-02 -5.681065999999999894e-02 -3.458863999999999689e-02 -5.068720000000000170e-02 -1.970670000000000061e-02 -4.229689999999999839e-02 -2.337016999999999914e-02 -5.170415999999999901e-02 -5.408812000000000342e-02 -3.419048999999999700e-02 -1.484620000000000037e-02 -2.139949999999999838e-02 -4.767276000000000152e-02 -6.576664000000000121e-02 -2.495413000000000145e-02 -1.680380000000000068e-02 -4.708009999999999973e-02 -6.847063000000000454e-02 -6.237434000000000034e-02 -1.736245000000000149e-02 -2.641666999999999974e-02 -6.612236999999999976e-02 -6.095992000000000077e-02 -3.354089999999999849e-02 -1.574841000000000088e-02 -3.153583000000000081e-02 -5.075117999999999990e-02 -2.120083999999999858e-02 -1.718435000000000101e-02 -2.604944999999999830e-02 -5.131687000000000054e-02 -2.552828999999999862e-02 -3.556266999999999762e-02 -2.204319000000000070e-02 -3.287551999999999836e-02 -3.761381999999999920e-02 -4.075063000000000296e-02 -4.638517000000000334e-02 -1.930215000000000056e-02 -4.330976000000000270e-02 -3.499829000000000134e-02 -4.647123000000000226e-02 -5.170583000000000123e-02 -5.262635999999999703e-02 -3.526255999999999835e-02 -3.833645000000000108e-02 -1.772753999999999996e-02 -4.665025999999999895e-02 -1.681188000000000127e-02 -3.249190999999999885e-02 -3.410823999999999800e-02 -3.389698000000000017e-02 -3.862357999999999764e-02 -4.500839999999999702e-02 -7.860955000000000026e-02 -4.895294000000000034e-02 -4.845150000000000151e-02 -1.773935999999999916e-02 -4.136234999999999912e-02 -5.614788999999999891e-02 -6.212610999999999828e-02 -3.538569999999999910e-02 -5.399450000000000083e-02 -6.385230999999999546e-02 -2.694070000000000145e-02 -2.191134999999999958e-02 -5.167345999999999745e-02 -5.810517999999999933e-02 -3.811951999999999702e-02 -7.595080999999999360e-02 -1.797607000000000024e-02 -2.303598999999999924e-02 -2.612010000000000026e-02 -3.526304000000000244e-02 -4.155818000000000012e-02 -5.283173000000000036e-02 -6.697885000000000644e-02 -4.435400999999999927e-02 -4.576257999999999715e-02 -4.795743999999999702e-02 -5.782262999999999986e-02 -7.207159999999999955e-02 -2.022534000000000137e-02 -3.401618000000000003e-02 -3.849336999999999898e-02 -6.439255000000000673e-02 -6.448065999999999520e-02 -1.473155999999999945e-02 -1.601881999999999959e-02 -5.110362000000000238e-02 -5.798953999999999914e-02 -6.960837999999999748e-02 -2.608198999999999934e-02 -6.560987999999999543e-02 -7.017760000000000664e-02 -7.429136000000000073e-02 -2.320010999999999948e-02 -3.811781999999999671e-02 -4.423113000000000045e-02 -5.102550000000000141e-02 -1.850208000000000061e-02 -3.574979999999999825e-02 -4.894474000000000047e-02 -5.506586000000000120e-02 -3.920697000000000071e-02 -6.035540999999999823e-02 -2.318150000000000072e-02 -2.723319000000000087e-02 -3.547017999999999699e-02 -4.486421000000000159e-02 -5.064789000000000097e-02 -5.552261000000000002e-02 -6.683902999999999373e-02 -6.383616999999999764e-02 -6.791482000000000074e-02 -2.696410999999999947e-02 -3.655337000000000169e-02 -3.879109000000000029e-02 -5.767694000000000293e-02 -6.258181000000000160e-02 -1.482425000000000062e-02 -2.328575000000000089e-02 -5.159564999999999985e-02 -6.948103999999999392e-02 -1.877217000000000122e-02 -2.110042000000000167e-02 -2.580990999999999841e-02 -4.898480000000000195e-02 -3.587487000000000315e-02 -3.316439000000000192e-02 -2.596402000000000085e-02 -1.671753000000000128e-02 -4.246598000000000039e-02 -3.324110000000000259e-02 -4.426578999999999930e-02 -2.367145999999999834e-02 -2.731607000000000132e-02 -1.337108000000000047e-02 -1.498153999999999979e-02 -3.519913000000000208e-02 -2.607545000000000002e-02 -3.697051999999999977e-02 -3.948188999999999865e-02 -4.109150999999999776e-02 -3.158981000000000289e-02 -2.008630999999999958e-02 -4.787199999999999789e-02 -4.752163999999999694e-02 -3.340734000000000065e-02 -2.785146999999999970e-02 -1.928877999999999843e-02 -4.505839999999999845e-02 -3.075485000000000024e-02 -5.149981000000000003e-02 -2.375686000000000117e-02 -5.596519999999999967e-02 -1.952351000000000086e-02 -3.967029999999999862e-02 -1.425173000000000065e-02 -6.371590000000000586e-02 -6.426687999999999845e-02 -3.806659999999999905e-02 -5.273006000000000221e-02 -4.127100000000000213e-02 -6.707834000000000019e-02 -6.703296999999999728e-02 -4.638016999999999834e-02 -3.316340000000000260e-02 -3.207419999999999716e-02 -2.169269000000000058e-02 -5.860408000000000284e-02 -3.731439999999999757e-02 -7.096183000000000352e-02 -6.906618000000000479e-02 -6.482564000000000382e-02 -4.705966000000000315e-02 -4.567593999999999821e-02 -3.863927000000000334e-02 -7.247401000000000537e-02 -7.149812999999999308e-02 -2.779090000000000032e-02 -1.655641000000000057e-02 -5.135086999999999985e-02 -4.710430000000000172e-02 -3.922199999999999992e-02 -3.030710000000000001e-02 -5.822597000000000189e-02 -6.733082999999999430e-02 -3.469233000000000039e-02 -2.980319999999999844e-02 -5.768055999999999878e-02 -5.321050000000000085e-02 -3.571160000000000306e-02 -2.886149999999999827e-02 -2.658049999999999996e-02 -6.968546000000000462e-02 -5.401899999999999757e-02 -1.787048999999999929e-02 -5.124333999999999834e-02 -6.177739000000000147e-02 -3.666509999999999908e-02 -1.493017999999999949e-02 -6.965551000000000381e-02 -5.574062999999999934e-02 -3.827959999999999696e-02 -3.528334000000000331e-02 -2.579806999999999934e-02 -6.366497000000000128e-02 -8.029430999999999374e-02 -5.418542999999999971e-02 -5.899998000000000048e-02 -5.952073000000000086e-02 -6.279179999999999484e-02 -4.189550000000000218e-02 -6.554541999999999313e-02 -6.464419000000000415e-02 -6.700639999999999374e-02 -6.447977000000000569e-02 -5.721963000000000049e-02 -7.436281000000000141e-02 -6.201899999999999774e-02 -4.687082000000000054e-02 -2.081428000000000098e-02 -6.953876999999999975e-02 -8.486388999999999738e-02 -5.487695000000000073e-02 -6.124178000000000260e-02 -6.588565000000000393e-02 -5.788942999999999867e-02 -5.184770999999999824e-02 -3.483460000000000029e-02 -3.098470000000000044e-02 -7.410756000000000288e-02 -7.900261999999999563e-02 -6.529707999999999346e-02 -3.365640000000000298e-02 -6.056925999999999977e-02 -6.854351999999999667e-02 -4.191320999999999936e-02 -6.456120999999999388e-02 -5.858143999999999851e-02 -2.332000000000000045e-02 -1.815989999999999965e-02 -1.647140000000000062e-02 -7.453036000000000383e-02 -7.111296999999999757e-02 -6.114938000000000318e-02 -4.691226999999999897e-02 -4.076035000000000075e-02 -2.632309999999999858e-02 -5.971217000000000191e-02 -5.117660000000000264e-02 -5.012657999999999697e-02 -7.279012999999999456e-02 -6.851123000000000629e-02 -3.934321000000000346e-02 -6.608066999999999414e-02 -7.172209999999999697e-02 -7.511500999999999595e-02 -6.514665000000000039e-02 -3.689859999999999668e-02 -6.336640000000000328e-02 -6.663333000000000450e-02 -5.816758999999999818e-02 -6.421221000000000567e-02 -5.342579000000000078e-02 -1.803149000000000071e-02 -7.716839000000000337e-02 -7.280135999999999552e-02 -7.802199999999999414e-02 -6.126336999999999755e-02 -5.440375000000000072e-02 -4.575428000000000134e-02 -3.383243999999999835e-02 -2.865762999999999991e-02 -5.503979999999999984e-02 