# EXPORT_MODE=CHECK_POINT
TITLE="FE Surface Data ASCII"
VARIABLES="X", "Y", "Z", "T", "Hw", "Hi", "HTC", "Beta", "TauX", "TauY", "TauZ"
ZONE T="ZONE 1"
NODES=3920
ELEMENTS=7448
DATAPACKING=BLOCK
ZONETYPE=FETRIANGLE
VARLOCATION=([4-11]=CELLCENTERED)
2.549305799999999900e-02 -2.404784999999999909e-02 -2.549305799999999900e-02 8.695870700000000314e-03 -8.695870700000000314e-03 1.844232800000000089e-02 -2.896647899999999984e-02 1.983836300000000122e-02 2.238036100000000139e-02 -4.648097300000000117e-04 4.648097300000000117e-04 -1.771553400000000153e-02 -2.837270199999999964e-02 2.177777800000000111e-02 -2.115276300000000151e-02 5.086670100000000201e-03 -2.896647899999999984e-02 2.890691800000000020e-02 2.632639399999999949e-02 -1.983836300000000122e-02 -2.890691800000000020e-02 1.771553400000000153e-02 2.816584100000000049e-02 1.697049900000000000e-02 -1.697049900000000000e-02 2.793003800000000078e-02 2.837270199999999964e-02 -1.382403599999999962e-02 1.463402899999999979e-02 -2.295996200000000043e-02 2.705154599999999923e-02 -2.869877599999999876e-02 5.086670100000000201e-03 -5.086670100000000201e-03 -1.393950500000000091e-03 1.299983499999999952e-02 2.881765400000000157e-02 4.168962600000000220e-03 1.216227599999999964e-02 -1.216227599999999964e-02 2.896647899999999984e-02 1.216227599999999964e-02 -2.837270199999999964e-02 2.869877599999999876e-02 -2.503687699999999905e-02 2.455497300000000077e-02 -8.695870700000000314e-03 -2.050609700000000091e-02 9.578127699999999453e-03 -2.670269000000000115e-02 -3.246971200000000040e-03 -3.246971200000000040e-03 -6.905462299999999901e-03 6.905462299999999901e-03 -6.905462299999999901e-03 -2.115276300000000151e-02 2.115276300000000151e-02 2.115276300000000151e-02 -4.648097300000000117e-04 -1.983836300000000122e-02 2.705154599999999923e-02 2.549305799999999900e-02 -1.542897499999999929e-02 -2.855040799999999934e-02 2.869877599999999876e-02 -1.620805100000000110e-02 1.542897499999999929e-02 5.086670100000000201e-03 4.168962600000000220e-03 1.393950500000000091e-03 -2.737260399999999830e-02 -2.837270199999999964e-02 -2.899627499999999844e-02 -5.999149500000000232e-03 2.670269000000000115e-02 -2.705154599999999923e-02 -2.670269000000000115e-02 -1.844232800000000089e-02 1.463402899999999979e-02 1.542897499999999929e-02 -1.542897499999999929e-02 -2.238036100000000139e-02 -2.899627499999999844e-02 2.455497300000000077e-02 2.837270199999999964e-02 -2.592304499999999873e-02 -1.045054299999999964e-02 -1.463402899999999979e-02 1.463402899999999979e-02 2.238036100000000139e-02 -2.050609700000000091e-02 -1.983836300000000122e-02 1.983836300000000122e-02 -2.816584100000000049e-02 2.592304499999999873e-02 2.404784999999999909e-02 -2.295996200000000043e-02 2.549305799999999900e-02 2.793003800000000078e-02 -2.503687699999999905e-02 -1.216227599999999964e-02 -2.890691800000000020e-02 2.766553500000000151e-02 -1.382403599999999962e-02 1.382403599999999962e-02 2.295996200000000043e-02 1.844232800000000089e-02 1.045054299999999964e-02 -1.620805100000000110e-02 6.905462299999999901e-03 -2.351599799999999976e-02 -1.382403599999999962e-02 -2.855040799999999934e-02 1.620805100000000110e-02 -1.620805100000000110e-02 1.382403599999999962e-02 1.542897499999999929e-02 2.351599799999999976e-02 -2.404784999999999909e-02 -2.177777800000000111e-02 1.771553400000000153e-02 -1.045054299999999964e-02 2.899627499999999844e-02 2.705154599999999923e-02 -5.999149500000000232e-03 -1.463402899999999979e-02 -2.238036100000000139e-02 1.393950500000000091e-03 2.890691800000000020e-02 5.999149500000000232e-03 1.382403599999999962e-02 1.299983499999999952e-02 -2.177777800000000111e-02 -1.131222100000000078e-02 -2.632639399999999949e-02 2.050609700000000091e-02 -2.050609700000000091e-02 -1.915015399999999909e-02 3.246971200000000040e-03 -2.455497300000000077e-02 8.695870700000000314e-03 2.881765400000000157e-02 2.321655599999999930e-03 1.299983499999999952e-02 -2.404784999999999909e-02 2.869877599999999876e-02 9.578127699999999453e-03 1.915015399999999909e-02 -2.869877599999999876e-02 2.869877599999999876e-02 -7.804677200000000384e-03 -2.455497300000000077e-02 8.695870700000000314e-03 -2.766553500000000151e-02 2.503687699999999905e-02 -2.404784999999999909e-02 -2.793003800000000078e-02 -2.737260399999999830e-02 2.705154599999999923e-02 9.578127699999999453e-03 -9.578127699999999453e-03 2.455497300000000077e-02 -9.578127699999999453e-03 2.404784999999999909e-02 -2.455497300000000077e-02 2.855040799999999934e-02 3.246971200000000040e-03 -2.899627499999999844e-02 -2.238036100000000139e-02 -1.697049900000000000e-02 1.697049900000000000e-02 -1.844232800000000089e-02 1.131222100000000078e-02 -1.983836300000000122e-02 1.983836300000000122e-02 2.295996200000000043e-02 -2.592304499999999873e-02 2.351599799999999976e-02 2.177777800000000111e-02 2.670269000000000115e-02 1.045054299999999964e-02 7.804677200000000384e-03 -1.299983499999999952e-02 -1.131222100000000078e-02 2.737260399999999830e-02 1.131222100000000078e-02 2.050609700000000091e-02 1.697049900000000000e-02 -2.737260399999999830e-02 2.115276300000000151e-02 -2.321655599999999930e-03 2.816584100000000049e-02 6.905462299999999901e-03 -2.321655599999999930e-03 -2.869877599999999876e-02 -7.804677200000000384e-03 1.216227599999999964e-02 1.216227599999999964e-02 -4.168962600000000220e-03 1.131222100000000078e-02 2.404784999999999909e-02 -1.915015399999999909e-02 1.620805100000000110e-02 2.737260399999999830e-02 -2.816584100000000049e-02 -6.905462299999999901e-03 -2.890691800000000020e-02 2.321655599999999930e-03 4.168962600000000220e-03 -4.168962600000000220e-03 -2.793003800000000078e-02 -2.705154599999999923e-02 2.503687699999999905e-02 2.766553500000000151e-02 2.549305799999999900e-02 5.999149500000000232e-03 1.620805100000000110e-02 2.592304499999999873e-02 2.351599799999999976e-02 -1.542897499999999929e-02 -6.905462299999999901e-03 -2.632639399999999949e-02 -2.549305799999999900e-02 4.648097300000000117e-04 -4.648097300000000117e-04 -2.855040799999999934e-02 2.890691800000000020e-02 2.238036100000000139e-02 -5.086670100000000201e-03 8.695870700000000314e-03 -1.216227599999999964e-02 -8.695870700000000314e-03 1.844232800000000089e-02 -1.844232800000000089e-02 2.238036100000000139e-02 -4.648097300000000117e-04 2.869877599999999876e-02 -1.771553400000000153e-02 -2.766553500000000151e-02 -2.670269000000000115e-02 -2.869877599999999876e-02 -2.881765400000000157e-02 -5.086670100000000201e-03 2.632639399999999949e-02 -2.855040799999999934e-02 -2.837270199999999964e-02 -2.592304499999999873e-02 -1.045054299999999964e-02 -1.771553400000000153e-02 2.816584100000000049e-02 -2.050609700000000091e-02 2.177777800000000111e-02 -1.382403599999999962e-02 1.463402899999999979e-02 2.115276300000000151e-02 -2.881765400000000157e-02 2.793003800000000078e-02 5.086670100000000201e-03 -2.890691800000000020e-02 2.890691800000000020e-02 -2.503687699999999905e-02 -5.999149500000000232e-03 -2.115276300000000151e-02 -1.393950500000000091e-03 -2.890691800000000020e-02 2.855040799999999934e-02 -2.632639399999999949e-02 2.881765400000000157e-02 4.168962600000000220e-03 2.632639399999999949e-02 1.771553400000000153e-02 2.705154599999999923e-02 -2.503687699999999905e-02 -8.695870700000000314e-03 -1.620805100000000110e-02 -2.896647899999999984e-02 2.837270199999999964e-02 6.905462299999999901e-03 5.999149500000000232e-03 -3.246971200000000040e-03 7.804677200000000384e-03 -3.246971200000000040e-03 2.115276300000000151e-02 -2.896647899999999984e-02 -1.697049900000000000e-02 8.695870700000000314e-03 -1.844232800000000089e-02 2.177777800000000111e-02 1.771553400000000153e-02 -1.771553400000000153e-02 -1.045054299999999964e-02 2.404784999999999909e-02 -2.705154599999999923e-02 -2.295996200000000043e-02 -2.816584100000000049e-02 5.999149500000000232e-03 -1.299983499999999952e-02 2.455497300000000077e-02 5.086670100000000201e-03 4.168962600000000220e-03 -4.168962600000000220e-03 1.393950500000000091e-03 -1.915015399999999909e-02 -1.915015399999999909e-02 2.050609700000000091e-02 -2.793003800000000078e-02 3.246971200000000040e-03 -3.246971200000000040e-03 2.816584100000000049e-02 -2.837270199999999964e-02 -1.463402899999999979e-02 -5.999149500000000232e-03 5.999149500000000232e-03 2.670269000000000115e-02 -2.837270199999999964e-02 -1.844232800000000089e-02 2.869877599999999876e-02 9.578127699999999453e-03 1.542897499999999929e-02 -2.881765400000000157e-02 -2.238036100000000139e-02 1.915015399999999909e-02 -1.771553400000000153e-02 -2.404784999999999909e-02 2.592304499999999873e-02 2.837270199999999964e-02 -2.899627499999999844e-02 -2.670269000000000115e-02 1.983836300000000122e-02 -2.455497300000000077e-02 2.592304499999999873e-02 -1.771553400000000153e-02 -1.393950500000000091e-03 2.115276300000000151e-02 -2.115276300000000151e-02 -2.295996200000000043e-02 -2.549305799999999900e-02 2.890691800000000020e-02 -2.503687699999999905e-02 -2.890691800000000020e-02 -1.216227599999999964e-02 2.766553500000000151e-02 -1.844232800000000089e-02 2.295996200000000043e-02 1.382403599999999962e-02 -2.737260399999999830e-02 2.177777800000000111e-02 2.177777800000000111e-02 1.045054299999999964e-02 2.899627499999999844e-02 -2.549305799999999900e-02 2.793003800000000078e-02 1.620805100000000110e-02 1.382403599999999962e-02 -1.299983499999999952e-02 -1.542897499999999929e-02 2.351599799999999976e-02 2.632639399999999949e-02 2.816584100000000049e-02 -2.177777800000000111e-02 -1.463402899999999979e-02 -2.321655599999999930e-03 2.321655599999999930e-03 2.896647899999999984e-02 2.899627499999999844e-02 -2.793003800000000078e-02 -5.086670100000000201e-03 -2.503687699999999905e-02 2.705154599999999923e-02 -1.463402899999999979e-02 -2.238036100000000139e-02 -2.455497300000000077e-02 2.050609700000000091e-02 1.393950500000000091e-03 2.793003800000000078e-02 -2.549305799999999900e-02 1.542897499999999929e-02 1.299983499999999952e-02 -1.131222100000000078e-02 4.168962600000000220e-03 7.804677200000000384e-03 2.321655599999999930e-03 -2.321655599999999930e-03 2.321655599999999930e-03 1.299983499999999952e-02 -7.804677200000000384e-03 -2.455497300000000077e-02 -1.620805100000000110e-02 -2.793003800000000078e-02 -2.737260399999999830e-02 -6.905462299999999901e-03 -2.632639399999999949e-02 9.578127699999999453e-03 -9.578127699999999453e-03 9.578127699999999453e-03 2.766553500000000151e-02 2.404784999999999909e-02 -1.844232800000000089e-02 2.855040799999999934e-02 3.246971200000000040e-03 8.695870700000000314e-03 -8.695870700000000314e-03 2.670269000000000115e-02 -2.855040799999999934e-02 -1.983836300000000122e-02 -4.648097300000000117e-04 -2.837270199999999964e-02 2.737260399999999830e-02 2.793003800000000078e-02 2.503687699999999905e-02 -2.238036100000000139e-02 7.804677200000000384e-03 -7.804677200000000384e-03 -1.131222100000000078e-02 2.737260399999999830e-02 1.131222100000000078e-02 -1.771553400000000153e-02 2.737260399999999830e-02 1.697049900000000000e-02 -2.855040799999999934e-02 -2.632639399999999949e-02 2.855040799999999934e-02 -2.321655599999999930e-03 -1.393950500000000091e-03 1.393950500000000091e-03 2.881765400000000157e-02 -7.804677200000000384e-03 1.216227599999999964e-02 1.216227599999999964e-02 5.086670100000000201e-03 -2.837270199999999964e-02 1.131222100000000078e-02 -4.648097300000000117e-04 -2.899627499999999844e-02 -2.766553500000000151e-02 2.837270199999999964e-02 -1.697049900000000000e-02 -2.816584100000000049e-02 -6.905462299999999901e-03 2.115276300000000151e-02 2.766553500000000151e-02 -4.168962600000000220e-03 1.382403599999999962e-02 2.295996200000000043e-02 2.503687699999999905e-02 5.999149500000000232e-03 -2.670269000000000115e-02 2.295996200000000043e-02 -1.542897499999999929e-02 4.648097300000000117e-04 -2.855040799999999934e-02 2.890691800000000020e-02 1.382403599999999962e-02 -5.086670100000000201e-03 -1.915015399999999909e-02 -1.915015399999999909e-02 -1.216227599999999964e-02 -8.695870700000000314e-03 1.844232800000000089e-02 -2.404784999999999909e-02 2.238036100000000139e-02 2.869877599999999876e-02 2.455497300000000077e-02 -2.899627499999999844e-02 1.542897499999999929e-02 2.899627499999999844e-02 2.238036100000000139e-02 2.455497300000000077e-02 -2.455497300000000077e-02 -2.592304499999999873e-02 2.592304499999999873e-02 -1.045054299999999964e-02 2.793003800000000078e-02 -1.382403599999999962e-02 -1.771553400000000153e-02 1.463402899999999979e-02 -2.115276300000000151e-02 2.549305799999999900e-02 2.793003800000000078e-02 5.086670100000000201e-03 1.983836300000000122e-02 2.632639399999999949e-02 -5.999149500000000232e-03 6.905462299999999901e-03 -2.869877599999999876e-02 -1.216227599999999964e-02 2.766553500000000151e-02 -2.632639399999999949e-02 1.299983499999999952e-02 -2.503687699999999905e-02 2.455497300000000077e-02 -8.695870700000000314e-03 -1.620805100000000110e-02 -6.905462299999999901e-03 -2.549305799999999900e-02 -2.816584100000000049e-02 2.816584100000000049e-02 -2.670269000000000115e-02 1.620805100000000110e-02 -1.382403599999999962e-02 1.382403599999999962e-02 -3.246971200000000040e-03 3.246971200000000040e-03 2.351599799999999976e-02 -1.697049900000000000e-02 -1.844232800000000089e-02 -1.983836300000000122e-02 1.771553400000000153e-02 -1.463402899999999979e-02 1.844232800000000089e-02 2.351599799999999976e-02 -1.045054299999999964e-02 -5.086670100000000201e-03 2.321655599999999930e-03 -2.881765400000000157e-02 2.793003800000000078e-02 -5.999149500000000232e-03 5.999149500000000232e-03 -1.299983499999999952e-02 2.869877599999999876e-02 9.578127699999999453e-03 -2.351599799999999976e-02 5.086670100000000201e-03 4.168962600000000220e-03 1.393950500000000091e-03 2.404784999999999909e-02 2.050609700000000091e-02 7.804677200000000384e-03 3.246971200000000040e-03 -2.793003800000000078e-02 -2.177777800000000111e-02 2.896647899999999984e-02 -5.999149500000000232e-03 1.216227599999999964e-02 -2.737260399999999830e-02 1.983836300000000122e-02 -2.793003800000000078e-02 1.299983499999999952e-02 2.455497300000000077e-02 9.578127699999999453e-03 1.915015399999999909e-02 -1.915015399999999909e-02 -2.404784999999999909e-02 -9.578127699999999453e-03 -1.697049900000000000e-02 1.983836300000000122e-02 2.177777800000000111e-02 2.404784999999999909e-02 -2.455497300000000077e-02 2.592304499999999873e-02 -1.393950500000000091e-03 -2.899627499999999844e-02 1.463402899999999979e-02 2.890691800000000020e-02 -2.869877599999999876e-02 -2.115276300000000151e-02 1.915015399999999909e-02 2.855040799999999934e-02 2.295996200000000043e-02 1.382403599999999962e-02 -2.177777800000000111e-02 2.177777800000000111e-02 1.045054299999999964e-02 -1.045054299999999964e-02 -2.705154599999999923e-02 -2.295996200000000043e-02 2.050609700000000091e-02 2.837270199999999964e-02 -1.299983499999999952e-02 -1.131222100000000078e-02 1.131222100000000078e-02 2.816584100000000049e-02 -2.177777800000000111e-02 2.670269000000000115e-02 -2.321655599999999930e-03 2.881765400000000157e-02 2.899627499999999844e-02 2.899627499999999844e-02 -1.463402899999999979e-02 -1.393950500000000091e-03 1.393950500000000091e-03 -2.549305799999999900e-02 1.131222100000000078e-02 -2.737260399999999830e-02 2.503687699999999905e-02 -1.131222100000000078e-02 -2.455497300000000077e-02 1.620805100000000110e-02 2.503687699999999905e-02 2.321655599999999930e-03 -2.549305799999999900e-02 -9.578127699999999453e-03 -2.855040799999999934e-02 2.503687699999999905e-02 -7.804677200000000384e-03 7.804677200000000384e-03 -7.804677200000000384e-03 2.455497300000000077e-02 -2.737260399999999830e-02 -2.670269000000000115e-02 -6.905462299999999901e-03 -2.632639399999999949e-02 9.578127699999999453e-03 -2.855040799999999934e-02 -2.896647899999999984e-02 -2.321655599999999930e-03 3.246971200000000040e-03 -1.542897499999999929e-02 8.695870700000000314e-03 -8.695870700000000314e-03 -8.695870700000000314e-03 1.844232800000000089e-02 1.131222100000000078e-02 -1.983836300000000122e-02 2.238036100000000139e-02 -4.648097300000000117e-04 -2.592304499999999873e-02 2.793003800000000078e-02 -2.115276300000000151e-02 2.404784999999999909e-02 1.983836300000000122e-02 -2.869877599999999876e-02 2.632639399999999949e-02 7.804677200000000384e-03 -1.131222100000000078e-02 1.620805100000000110e-02 2.816584100000000049e-02 -1.697049900000000000e-02 1.697049900000000000e-02 -1.382403599999999962e-02 2.816584100000000049e-02 -1.463402899999999979e-02 1.463402899999999979e-02 2.295996200000000043e-02 -2.295996200000000043e-02 -5.086670100000000201e-03 -2.890691800000000020e-02 -5.999149500000000232e-03 -2.816584100000000049e-02 6.905462299999999901e-03 -1.393950500000000091e-03 2.632639399999999949e-02 2.881765400000000157e-02 -7.804677200000000384e-03 1.216227599999999964e-02 -1.216227599999999964e-02 1.216227599999999964e-02 2.896647899999999984e-02 2.869877599999999876e-02 2.050609700000000091e-02 -2.890691800000000020e-02 2.705154599999999923e-02 2.503687699999999905e-02 -2.503687699999999905e-02 -8.695870700000000314e-03 -2.896647899999999984e-02 2.766553500000000151e-02 2.881765400000000157e-02 2.592304499999999873e-02 -1.697049900000000000e-02 -2.632639399999999949e-02 -6.905462299999999901e-03 6.905462299999999901e-03 -2.115276300000000151e-02 2.115276300000000151e-02 -4.648097300000000117e-04 2.855040799999999934e-02 -4.168962600000000220e-03 2.549305799999999900e-02 -1.542897499999999929e-02 4.648097300000000117e-04 2.816584100000000049e-02 -2.295996200000000043e-02 -2.816584100000000049e-02 -2.351599799999999976e-02 -2.705154599999999923e-02 2.899627499999999844e-02 1.915015399999999909e-02 2.890691800000000020e-02 -1.620805100000000110e-02 -2.351599799999999976e-02 4.168962600000000220e-03 -5.086670100000000201e-03 -2.404784999999999909e-02 -1.915015399999999909e-02 -2.503687699999999905e-02 -1.216227599999999964e-02 1.216227599999999964e-02 2.869877599999999876e-02 2.670269000000000115e-02 -2.705154599999999923e-02 1.463402899999999979e-02 2.890691800000000020e-02 1.542897499999999929e-02 -1.542897499999999929e-02 -2.881765400000000157e-02 4.648097300000000117e-04 2.592304499999999873e-02 -2.592304499999999873e-02 -2.592304499999999873e-02 -1.045054299999999964e-02 -2.050609700000000091e-02 -1.771553400000000153e-02 -2.115276300000000151e-02 -2.881765400000000157e-02 -2.295996200000000043e-02 2.890691800000000020e-02 6.905462299999999901e-03 -2.115276300000000151e-02 -1.216227599999999964e-02 -2.793003800000000078e-02 -2.632639399999999949e-02 2.455497300000000077e-02 -1.620805100000000110e-02 6.905462299999999901e-03 -2.549305799999999900e-02 -2.295996200000000043e-02 2.816584100000000049e-02 -2.351599799999999976e-02 1.915015399999999909e-02 1.620805100000000110e-02 -1.620805100000000110e-02 -2.896647899999999984e-02 2.896647899999999984e-02 -3.246971200000000040e-03 2.351599799999999976e-02 -2.592304499999999873e-02 -2.404784999999999909e-02 -2.177777800000000111e-02 -1.983836300000000122e-02 1.771553400000000153e-02 -1.463402899999999979e-02 -2.881765400000000157e-02 -2.816584100000000049e-02 -2.766553500000000151e-02 2.896647899999999984e-02 -1.045054299999999964e-02 -2.705154599999999923e-02 2.881765400000000157e-02 -5.086670100000000201e-03 -2.890691800000000020e-02 2.050609700000000091e-02 2.890691800000000020e-02 5.999149500000000232e-03 -1.299983499999999952e-02 -2.890691800000000020e-02 -2.890691800000000020e-02 -2.632639399999999949e-02 -2.869877599999999876e-02 2.881765400000000157e-02 2.050609700000000091e-02 1.915015399999999909e-02 2.896647899999999984e-02 7.804677200000000384e-03 3.246971200000000040e-03 2.896647899999999984e-02 2.881765400000000157e-02 -5.999149500000000232e-03 2.632639399999999949e-02 1.299983499999999952e-02 -1.299983499999999952e-02 -2.899627499999999844e-02 1.771553400000000153e-02 2.705154599999999923e-02 2.404784999999999909e-02 1.915015399999999909e-02 -2.869877599999999876e-02 -2.503687699999999905e-02 -7.804677200000000384e-03 8.695870700000000314e-03 2.592304499999999873e-02 -2.705154599999999923e-02 -9.578127699999999453e-03 1.463402899999999979e-02 1.983836300000000122e-02 2.404784999999999909e-02 2.592304499999999873e-02 -1.393950500000000091e-03 3.246971200000000040e-03 -2.881765400000000157e-02 -2.115276300000000151e-02 -2.896647899999999984e-02 1.697049900000000000e-02 1.697049900000000000e-02 2.295996200000000043e-02 1.382403599999999962e-02 1.697049900000000000e-02 -2.592304499999999873e-02 -2.737260399999999830e-02 -2.177777800000000111e-02 2.177777800000000111e-02 1.045054299999999964e-02 1.045054299999999964e-02 -2.705154599999999923e-02 -2.050609700000000091e-02 7.804677200000000384e-03 -1.299983499999999952e-02 -1.131222100000000078e-02 2.632639399999999949e-02 2.737260399999999830e-02 1.131222100000000078e-02 2.351599799999999976e-02 1.045054299999999964e-02 -2.321655599999999930e-03 2.705154599999999923e-02 1.393950500000000091e-03 -2.549305799999999900e-02 -9.578127699999999453e-03 -2.899627499999999844e-02 2.737260399999999830e-02 -2.737260399999999830e-02 -2.177777800000000111e-02 -1.131222100000000078e-02 2.670269000000000115e-02 2.737260399999999830e-02 2.670269000000000115e-02 2.321655599999999930e-03 -9.578127699999999453e-03 -4.168962600000000220e-03 2.503687699999999905e-02 -2.737260399999999830e-02 2.670269000000000115e-02 4.648097300000000117e-04 -4.648097300000000117e-04 -9.578127699999999453e-03 -2.351599799999999976e-02 -2.855040799999999934e-02 2.890691800000000020e-02 -2.351599799999999976e-02 -2.869877599999999876e-02 2.869877599999999876e-02 -1.542897499999999929e-02 -5.086670100000000201e-03 -1.542897499999999929e-02 -2.404784999999999909e-02 -2.899627499999999844e-02 8.695870700000000314e-03 2.177777800000000111e-02 1.844232800000000089e-02 2.238036100000000139e-02 -4.648097300000000117e-04 4.648097300000000117e-04 -2.766553500000000151e-02 4.648097300000000117e-04 -2.869877599999999876e-02 2.455497300000000077e-02 2.632639399999999949e-02 -1.983836300000000122e-02 2.816584100000000049e-02 1.697049900000000000e-02 -1.382403599999999962e-02 2.115276300000000151e-02 1.771553400000000153e-02 1.463402899999999979e-02 -2.295996200000000043e-02 5.086670100000000201e-03 -5.999149500000000232e-03 2.837270199999999964e-02 -2.869877599999999876e-02 -1.393950500000000091e-03 2.632639399999999949e-02 1.216227599999999964e-02 1.393950500000000091e-03 2.455497300000000077e-02 -8.695870700000000314e-03 -2.050609700000000091e-02 -2.793003800000000078e-02 -1.697049900000000000e-02 2.115276300000000151e-02 -3.246971200000000040e-03 -6.905462299999999901e-03 2.115276300000000151e-02 -1.697049900000000000e-02 -4.648097300000000117e-04 2.855040799999999934e-02 -1.844232800000000089e-02 -2.837270199999999964e-02 2.351599799999999976e-02 -2.351599799999999976e-02 2.295996200000000043e-02 2.549305799999999900e-02 -1.542897499999999929e-02 -2.837270199999999964e-02 2.899627499999999844e-02 9.578127699999999453e-03 -1.620805100000000110e-02 -2.351599799999999976e-02 1.382403599999999962e-02 -4.168962600000000220e-03 4.168962600000000220e-03 2.404784999999999909e-02 -2.404784999999999909e-02 -1.915015399999999909e-02 -1.915015399999999909e-02 2.549305799999999900e-02 -1.216227599999999964e-02 3.246971200000000040e-03 -3.246971200000000040e-03 -2.404784999999999909e-02 -2.793003800000000078e-02 -2.177777800000000111e-02 2.869877599999999876e-02 -5.999149500000000232e-03 5.999149500000000232e-03 2.592304499999999873e-02 2.670269000000000115e-02 -2.670269000000000115e-02 2.238036100000000139e-02 -2.899627499999999844e-02 1.542897499999999929e-02 -2.238036100000000139e-02 -2.670269000000000115e-02 -2.766553500000000151e-02 2.592304499999999873e-02 -2.592304499999999873e-02 -1.045054299999999964e-02 1.463402899999999979e-02 -2.050609700000000091e-02 1.983836300000000122e-02 7.804677200000000384e-03 2.592304499999999873e-02 2.050609700000000091e-02 -1.771553400000000153e-02 -1.393950500000000091e-03 -2.115276300000000151e-02 -2.295996200000000043e-02 2.890691800000000020e-02 -2.503687699999999905e-02 6.905462299999999901e-03 -2.115276300000000151e-02 4.648097300000000117e-04 2.855040799999999934e-02 -1.216227599999999964e-02 2.295996200000000043e-02 -2.855040799999999934e-02 -1.983836300000000122e-02 1.382403599999999962e-02 -1.382403599999999962e-02 -2.177777800000000111e-02 1.045054299999999964e-02 -2.705154599999999923e-02 6.905462299999999901e-03 2.549305799999999900e-02 -2.295996200000000043e-02 2.816584100000000049e-02 -1.382403599999999962e-02 1.620805100000000110e-02 -1.299983499999999952e-02 1.542897499999999929e-02 2.351599799999999976e-02 -2.737260399999999830e-02 1.771553400000000153e-02 -1.771553400000000153e-02 -1.463402899999999979e-02 2.881765400000000157e-02 -5.086670100000000201e-03 2.705154599999999923e-02 2.899627499999999844e-02 -1.463402899999999979e-02 2.238036100000000139e-02 -2.238036100000000139e-02 2.837270199999999964e-02 -2.455497300000000077e-02 1.393950500000000091e-03 2.793003800000000078e-02 -2.549305799999999900e-02 5.999149500000000232e-03 -1.620805100000000110e-02 -1.299983499999999952e-02 -2.837270199999999964e-02 2.632639399999999949e-02 2.737260399999999830e-02 2.855040799999999934e-02 -2.855040799999999934e-02 2.050609700000000091e-02 1.915015399999999909e-02 2.896647899999999984e-02 7.804677200000000384e-03 2.896647899999999984e-02 5.999149500000000232e-03 1.299983499999999952e-02 1.915015399999999909e-02 -2.793003800000000078e-02 -7.804677200000000384e-03 8.695870700000000314e-03 -2.050609700000000091e-02 -2.705154599999999923e-02 9.578127699999999453e-03 -9.578127699999999453e-03 -2.670269000000000115e-02 2.549305799999999900e-02 -1.542897499999999929e-02 -2.238036100000000139e-02 1.697049900000000000e-02 2.670269000000000115e-02 1.844232800000000089e-02 -2.766553500000000151e-02 2.295996200000000043e-02 2.177777800000000111e-02 1.045054299999999964e-02 2.899627499999999844e-02 1.983836300000000122e-02 -2.238036100000000139e-02 -2.050609700000000091e-02 7.804677200000000384e-03 -7.804677200000000384e-03 -1.131222100000000078e-02 2.737260399999999830e-02 1.131222100000000078e-02 1.771553400000000153e-02 2.737260399999999830e-02 1.697049900000000000e-02 2.321655599999999930e-03 -2.321655599999999930e-03 -2.295996200000000043e-02 2.855040799999999934e-02 -2.321655599999999930e-03 1.216227599999999964e-02 -4.168962600000000220e-03 2.503687699999999905e-02 2.837270199999999964e-02 -2.737260399999999830e-02 -3.246971200000000040e-03 -2.632639399999999949e-02 2.816584100000000049e-02 -6.905462299999999901e-03 2.321655599999999930e-03 -2.321655599999999930e-03 2.766553500000000151e-02 -9.578127699999999453e-03 -4.168962600000000220e-03 5.999149500000000232e-03 2.670269000000000115e-02 -1.542897499999999929e-02 4.648097300000000117e-04 -2.351599799999999976e-02 -1.620805100000000110e-02 1.542897499999999929e-02 -2.351599799999999976e-02 -5.086670100000000201e-03 2.549305799999999900e-02 -2.404784999999999909e-02 -1.915015399999999909e-02 8.695870700000000314e-03 -2.899627499999999844e-02 -7.804677200000000384e-03 1.216227599999999964e-02 1.844232800000000089e-02 2.238036100000000139e-02 -4.648097300000000117e-04 -2.899627499999999844e-02 -1.771553400000000153e-02 -2.592304499999999873e-02 -2.899627499999999844e-02 1.463402899999999979e-02 4.648097300000000117e-04 -1.983836300000000122e-02 -2.766553500000000151e-02 -1.045054299999999964e-02 2.837270199999999964e-02 -1.382403599999999962e-02 -2.816584100000000049e-02 1.463402899999999979e-02 -2.793003800000000078e-02 -2.793003800000000078e-02 5.086670100000000201e-03 -2.503687699999999905e-02 2.837270199999999964e-02 -1.393950500000000091e-03 1.393950500000000091e-03 4.168962600000000220e-03 -2.837270199999999964e-02 2.455497300000000077e-02 -8.695870700000000314e-03 -1.620805100000000110e-02 -6.905462299999999901e-03 6.905462299999999901e-03 -2.050609700000000091e-02 -1.697049900000000000e-02 -1.382403599999999962e-02 2.896647899999999984e-02 -3.246971200000000040e-03 2.351599799999999976e-02 2.115276300000000151e-02 -1.697049900000000000e-02 -4.648097300000000117e-04 2.855040799999999934e-02 -1.844232800000000089e-02 -1.983836300000000122e-02 1.771553400000000153e-02 2.632639399999999949e-02 -2.855040799999999934e-02 2.890691800000000020e-02 -5.999149500000000232e-03 5.999149500000000232e-03 2.899627499999999844e-02 -1.299983499999999952e-02 1.299983499999999952e-02 5.086670100000000201e-03 4.168962600000000220e-03 -2.837270199999999964e-02 2.881765400000000157e-02 2.050609700000000091e-02 2.896647899999999984e-02 3.246971200000000040e-03 8.695870700000000314e-03 -5.999149500000000232e-03 2.766553500000000151e-02 -2.705154599999999923e-02 -2.670269000000000115e-02 -1.844232800000000089e-02 2.869877599999999876e-02 1.542897499999999929e-02 -2.238036100000000139e-02 1.915015399999999909e-02 -2.503687699999999905e-02 2.837270199999999964e-02 -2.592304499999999873e-02 2.705154599999999923e-02 1.463402899999999979e-02 2.238036100000000139e-02 1.983836300000000122e-02 -2.455497300000000077e-02 2.592304499999999873e-02 -1.771553400000000153e-02 2.549305799999999900e-02 6.905462299999999901e-03 -2.115276300000000151e-02 -1.216227599999999964e-02 -2.766553500000000151e-02 1.844232800000000089e-02 2.295996200000000043e-02 1.382403599999999962e-02 -2.592304499999999873e-02 2.351599799999999976e-02 -2.177777800000000111e-02 2.177777800000000111e-02 2.670269000000000115e-02 2.592304499999999873e-02 1.844232800000000089e-02 1.045054299999999964e-02 -2.766553500000000151e-02 1.045054299999999964e-02 -1.045054299999999964e-02 -2.705154599999999923e-02 -2.295996200000000043e-02 2.816584100000000049e-02 -2.050609700000000091e-02 2.793003800000000078e-02 1.915015399999999909e-02 1.620805100000000110e-02 1.382403599999999962e-02 -1.299983499999999952e-02 1.542897499999999929e-02 -1.131222100000000078e-02 1.131222100000000078e-02 1.045054299999999964e-02 -2.321655599999999930e-03 2.881765400000000157e-02 2.899627499999999844e-02 2.404784999999999909e-02 2.295996200000000043e-02 2.705154599999999923e-02 -1.463402899999999979e-02 -2.238036100000000139e-02 1.393950500000000091e-03 -1.393950500000000091e