# EXPORT MODE: CHECK_POINT
TITLE="FE Surface Data ASCII"
VARIABLES="X", "Y", "Z", "T", "Hw", "Hi", "HTC", "Beta", "TauX", "TauY", "TauZ"
ZONE T="ZONE 2"
NODES=12
ELEMENTS=10
DATAPACKING=BLOCK
ZONETYPE=FETRIANGLE
VARLOCATION=([4-11]=CELLCENTERED)
5.285999999999999900e-03 4.595000000000000126e-03 3.944999999999999722e-03 3.335999999999999990e-03 2.769000000000000194e-03 2.246999999999999865e-03 5.285999999999999900e-03 4.595000000000000126e-03 3.944999999999999722e-03 3.335999999999999990e-03 2.769000000000000194e-03 2.246999999999999865e-03 
-9.098999999999999450e-03 -8.519000000000000530e-03 -7.926000000000000753e-03 -7.317999999999999852e-03 -6.695000000000000430e-03 -6.055999999999999751e-03 -9.098999999999999450e-03 -8.519000000000000530e-03 -7.926000000000000753e-03 -7.317999999999999852e-03 -6.695000000000000430e-03 -6.055999999999999751e-03 
0.000000000000000000e+00 0.000000000000000000e+00 0.000000000000000000e+00 0.000000000000000000e+00 0.000000000000000000e+00 0.000000000000000000e+00 1.000000000000000021e-03 1.000000000000000021e-03 1.000000000000000021e-03 1.000000000000000021e-03 1.000000000000000021e-03 1.000000000000000021e-03 
0.000000000000000000e+00 0.000000000000000000e+00 0.000000000000000000e+00 0.000000000000000000e+00 0.000000000000000000e+00 0.000000000000000000e+00 0.000000000000000000e+00 0.000000000000000000e+00 0.000000000000000000e+00 0.000000000000000000e+00 
0.000000000000000000e+00 0.000000000000000000e+00 0.000000000000000000e+00 0.000000000000000000e+00 0.000000000000000000e+00 0.000000000000000000e+00 0.000000000000000000e+00 0.000000000000000000e+00 0.000000000000000000e+00 0.000000000000000000e+00 
0.000000000000000000e+00 0.000000000000000000e+00 0.000000000000000000e+00 0.000000000000000000e+00 0.000000000000000000e+00 0.000000000000000000e+00 0.000000000000000000e+00 0.000000000000000000e+00 0.000000000000000000e+00 0.000000000000000000e+00 
2.822139999999999986e+02 2.745550000000000068e+02 2.596903330000000096e+02 2.524846670000000017e+02 2.394003329999999892e+02 2.335216670000000079e+02 2.254566670000000101e+02 2.232703329999999937e+02 2.228523329999999874e+02 2.246206669999999974e+02 
5.541789999999999772e-01 5.619889999999999608e-01 5.777010000000000201e-01 5.856019999999999559e-01 6.013129999999999864e-01 6.091210000000000235e-01 6.244950000000000223e-01 6.320590000000000375e-01 6.469219999999999970e-01 6.542189999999999950e-01 
1.436213300000000004e+01 1.301216699999999982e+01 1.038422300000000043e+01 9.106246999999999758e+00 6.717323000000000377e+00 5.606377000000000166e+00 3.595657000000000103e+00 2.695882999999999807e+00 9.891269999999999785e-01 1.821450000000000014e-01 
-1.180663299999999971e+01 -1.097266699999999950e+01 -9.223629999999999995e+00 -8.308559999999999945e+00 -6.475003000000000064e+00 -5.556517000000000372e+00 -3.761559999999999793e+00 -2.885089999999999932e+00 -1.035829000000000111e+00 -6.303799999999999681e-02 
0.000000000000000000e+00 0.000000000000000000e+00 0.000000000000000000e+00 0.000000000000000000e+00 0.000000000000000000e+00 0.000000000000000000e+00 0.000000000000000000e+00 0.000000000000000000e+00 0.000000000000000000e+00 0.000000000000000000e+00 
1 7 2
8 2 7
2 8 3
9 3 8
3 9 4
10 4 9
4 10 5
11 5 10
5 11 6
12 6 11
