VARIABLES="X", "Y", "Z", "T", "Hw", "Hi", "HTC", "Beta", "TauX", "TauY", "TauZ"
ZONE T="ZONE 1"
NODES=27704
ELEMENTS=53952
DATAPACKING=BLOCK
ZONETYPE=FETRIANGLE
VARLOCATION=([4-11]=CELLCENTERED)
5.4553 6.1786 6.1862 5.4462 6.1247 5.4374 6.0659 5.1977 5.9965 5.2939 5.9668 5.2223 5.9829 5.2251 5.9989 5.3827 4.4661 4.8057 4.6824 4.712 4.7197 4.4952 4.5911 4.5056 5.8554 5.1321 5.863 5.1231 5.8015 5.1142 5.7427 4.8745 5.6733 4.9707 5.6436 4.8991 5.6597 4.9019 5.6757 4.1429 5.0595 4.4825 4.3592 4.3888 4.3965 4.172 4.2679 4.1825 110.2293 109.9978 110.2293 109.9978 109.9978 109.9997 109.9978 110.2293 109.9978 110.2293 109.9978 110.2293 109.9978 110.2293 109.9978 110.2293 109.9978 110.2293 109.9978 110.2293 109.9978 110.2293 109.9978 110.2293 109.9978 110.2293 109.9978 110.2293 109.9978 110.2293 109.9978 110.2293 109.9978 110.2293 109.9978 110.0604 109.9978 110.0604 109.9978 110.0604 109.9978 109.9974 109.9978 109.9974 109.9978 109.9974 109.9978 109.9974 112.0064 112.0064 112.0064 112.0064 112.0064 112.0064 112.0064 112.0064 112.0064 112.0064 112.0064 112.0064 112.0064 112.0064 112.0064 112.0064 112.1752 112.1752 112.1752 112.2385 112.2385 112.2385 112.2385 112.2379 112.2379 112.2379 112.2379 112.2379 112.2379 112.2379 112.2379 112.2379 112.2379 112.2379 112.2379 112.2379 112.2379 112.2379 112.2379 112.2379 112.2379 112.2379 112.2379 112.2379 112.2379 112.2379 112.236 111.3419 111.3419 111.3418 111.3418 110.8938 110.8938 110.8938 110.8938 112.2379 -2.2562 -4.4974 -2.2562 -4.4974 -2.2562 -4.4974 -2.2562 -4.4974 -2.2562 -4.4974 -2.2562 -4.4974 -2.2562 -4.4974 -3.3683 -2.2562 -4.4974 -2.2562 -2.2562 -4.4974 -4.4974 -2.2562 -4.4974 -2.2562 -4.4974 -2.2562 -4.4974 -2.2562 -4.4974 -2.2562 -3.3683 -2.2562 -0.015 -0.015 -0.015 -0.015 -0.015 -0.015 -0.015 -1.1441 -0.015 -0.015 -0.015 -0.015 -0.015 -0.015 -0.015 -1.1441 28.9461 28.9461 28.8107 28.8107 28.8107 28.8107 28.9461 28.9461 29.216 29.216 29.216 29.216 28.9461 29.216 28.8107 29.216 28.9461 28.8107 29.2618 29.5205 29.2618 29.5205 29.6526 29.3726 29.2618 29.5205 29.2618 29.5205 29.6526 29.3726 29.2618 29.0728 29.5205 29.4031 29.2618 29.0728 29.3726 29.3726 29.3726 29.6526 29.2618 29.2618 29.2618 29.0728 29.0728 29.5205 29.5205 29.5205 29.4031 29.4031 29.6526 29.6526 29.5205 29.5205 29.4031 29.4031 29.5205 29.5205 29.4031 29.6526 29.6526 29.5205 29.5205 29.4031 29.4031 29.2618 29.0728 29.0728 29.2618 29.3726 29.2618 29.3726 29.0728 29.2618 29.0728 29.2617 -33.4617 -33.4617 -33.3263 -33.3263 -33.3263 -33.3263 -33.4617 -33.4617 -33.7315 -33.7315 -33.7315 -33.7315 -33.7315 -33.4617 -33.3263 -33.4617 -33.7315 -33.3263 -33.7773 -34.036 -33.7773 -34.036 -34.1682 -33.8882 -33.7773 -34.036 -33.7773 -34.036 -34.1682 -33.8882 -33.7773 -34.036 -33.5883 -33.9186 -33.7773 -33.5883 -33.8882 -33.8882 -33.8882 -34.1682 -33.7773 -33.7773 -33.7773 -33.5883 -33.5883 -34.036 -34.036 -34.036 -33.9186 -33.9186 -34.1682 -34.1682 -34.036 -34.036 -33.9186 -33.9186 -34.036 -34.036 -33.9186 -34.1682 -34.1682 -34.036 -34.036 -33.9186 -33.9186 -33.7773 -33.5883 -33.5883 -33.7773 -33.8882 -33.7773 -33.8882 -33.7773 -33.5883 -33.5883 -33.7773 27.9165 27.3593 27.9165 27.3604 27.2736 27.9165 27.2736 27.9165 27.3593 27.9165 27.3593 27.9165 27.2736 27.9165 27.2736 27.9165 27.3593 27.9165 27.3593 27.9165 27.2736 27.9165 27.2736 27.9165 27.3593 27.9165 27.3593 27.9165 27.2736 27.9165 27.2736 27.9165 27.3593 27.9165 27.3593 27.9165 27.2736 27.9165 27.2736 27.9165 27.3593 27.9165 26.887 26.8889 26.7285 26.7285 26.8869 26.8869 26.7285 26.7285 26.8869 26.8869 26.7285 26.7285 26.8869 26.8869 26.7285 26.7286 26.8869 26.8869 26.7286 26.7286 26.8869 26.5713 26.5739 26.3644 26.3644 26.5713 26.5713 26.3644 26.3644 26.5713 26.5713 26.3644 26.3644 26.5713 26.5713 26.3644 26.3644 26.5713 26.5713 26.3644 26.3644 26.5713 26.4605 26.4633 26.2365 26.2365 26.4605 26.4605 26.2365 26.2365 26.4605 26.4605 26.2365 26.2365 26.4605 26.4605 26.2365 26.2365 26.4605 26.4605 26.2365 26.2365 26.4605 26.5713 26.3644 26.3644 26.5713 26.5713 26.3644 26.3644 26.5713 26.5713 26.3644 26.3644 26.5713 26.5713 26.3644 26.3644 26.5713 26.5713 26.3644 26.3644 26.5713 26.887 26.8889 26.7285 26.7285 26.8869 26.8869 26.7285 26.7285 26.8869 26.8869 26.7285 26.7285 26.8869 26.8869 26.7286 26.7286 26.8869 26.8869 26.7286 26.7286 26.8869 27.3593 27.3604 27.2736 27.2736 27.3593 27.3593 27.2736 27.2736 27.3593 27.3593 27.2736 27.2736 27.3593 27.3593 27.2736 27.2736 27.3593 27.3593 27.2736 27.2736 27.3593 27.9165 27.9165 27.9165 27.9165 27.9165 27.9165 27.9165 27.9165 27.9165 27.9165 27.9165 27.9165 27.9165 27.9165 27.9165 27.9165 27.9165 27.9165 27.9165 27.9165 27.9165 28.4738 28.4727 28.5595 28.5595 28.4737 28.4737 28.5595 28.5595 28.4737 28.4737 28.5595 28.5595 28.4737 28.4737 28.5595 28.5595 28.4737 28.4738 28.5595 28.5595 28.4738 28.9461 28.9441 29.1045 29.1045 28.9461 28.9461 29.1045 29.1045 28.9461 28.9461 29.1045 29.1045 28.9461 28.9461 29.1045 29.1045 28.9461 28.9461 29.1045 29.1045 28.9461 29.2618 29.2592 29.4687 29.4687 29.2618 29.2618 29.4687 29.4687 29.2618 29.2618 29.4687 29.4687 29.2618 29.2618 29.4687 29.4687 29.2618 29.2618 29.4687 29.4687 29.2618 29.3726 29.3698 29.5966 29.5966 29.3726 29.3726 29.5966 29.5966 29.3726 29.3726 29.5966 29.5966 29.3726 29.3726 29.5966 29.5966 29.3726 29.3726 29.5966 29.5966 29.3726 29.2618 29.2592 29.4687 29.4687 29.2618 29.2618 29.4687 29.4687 29.2618 29.2618 29.4687 29.4687 29.2618 29.2618 29.4687 29.4687 29.2618 29.2618 29.4687 29.4687 29.2618 28.9461 28.9441 29.1045 29.1045 28.9461 28.9461 29.1045 29.1045 28.9461 28.9461 29.1045 29.1045 28.9461 28.9461 29.1045 29.1045 28.9461 28.9461 29.1045 29.1045 28.9461 28.4738 28.4727 28.5595 28.5595 28.4737 28.4737 28.5595 28.5595 28.4737 28.4737 28.5595 28.5595 28.4737 28.4737 28.5595 28.5595 28.4737 28.4738 28.5595 28.5595 28.4738 27.9165 26.5739 26.4633 26.5739 27.9165 26.8889 27.3604 27.9165 28.4727 28.9441 29.2592 29.3698 29.2592 28.9441 28.4727 27.9165 27.3604 26.8889 26.5739 27.9165 28.4737 27.9165 28.9461 29.2618 29.3726 29.2618 28.9461 28.4737 27.9165 27.3593 26.8869 26.5713 26.4605 26.5713 26.8869 27.3593 28.4737 27.9165 28.9461 29.2618 29.3726 29.2618 28.9461 28.4737 27.9165 27.3593 26.8869 26.5713 26.4605 26.5713 26.8869 27.3593 27.9165 27.9165 27.9165 27.3565 26.2365 27.9165 27.3565 27.9165 26.2365 27.9165 26.2365 27.9165 26.2365 27.9165 26.2365 27.9165 26.2365 27.9165 26.2365 27.9165 27.3565 27.9165 27.9165 26.2365 27.3565 27.9165 26.2365 27.9165 26.2365 27.9165 26.2365 27.9165 26.2365 27.9165 26.2365 27.9165 26.2365 27.9165 26.2365 27.9165 26.2365 27.9165 26.2365 27.9165 26.2365 27.9165 26.2365 27.3565 27.3565 26.2841 26.2841 27.3565 27.3565 27.1076 26.2738 26.2738 27.1076 27.4996 26.6658 27.4996 26.6658 28.4766 29.5966 28.4766 29.5966 29.5966 29.5966 29.5966 29.5966 29.5966 28.4766 29.5966 28.4766 29.5966 29.5966 29.5966 29.5966 29.5966 29.5966 29.5966 29.5966 29.5966 29.5966 29.5966 28.4766 28.4766 29.5489 29.5489 28.4766 28.4766 28.7255 29.5593 29.5593 28.7255 29.1673 28.3334 28.3334 29.1673 27.4685 27.4685 28.3646 28.3646 27.4685 28.3646 27.4685 28.3646 27.4685 27.4685 28.3646 28.3646 27.4685 28.3646 27.9165 27.4685 28.3646 27.9165 27.4685 28.3646 -31.8749 -32.4321 -32.4321 -31.7891 -31.8759 -32.4321 -31.7891 -32.4321 -31.8749 -32.4321 -31.8749 -32.4321 -31.7891 -32.4321 -31.7891 -32.4321 -31.8749 -32.4321 -31.8749 -32.4321 -31.7891 -32.4321 -31.7891 -32.4321 -31.8749 -32.4321 -31.8749 -32.4321 -31.7892 -32.4321 -31.7892 -32.4321 -31.8749 -32.4321 -31.8749 -32.4321 -31.7892 -32.4321 -31.7892 -32.4321 -31.8749 -32.4321 -31.4025 -31.2441 -31.4045 -31.2441 -31.4025 -31.4025 -31.2441 -31.2441 -31.4025 -31.4025 -31.2441 -31.2441 -31.4025 -31.4025 -31.2441 -31.2441 -31.4025 -31.4025 -31.2441 -31.2441 -31.4025 -31.0869 -30.8799 -31.0894 -30.8799 -31.0869 -31.0869 -30.8799 -30.8799 -31.0869 -31.0869 -30.8799 -30.8799 -31.0869 -31.0869 -30.8799 -30.8799 -31.0869 -31.0869 -30.8799 -30.8799 -31.0869 -30.976 -30.752 -30.9788 -30.752 -30.976 -30.976 -30.752 -30.752 -30.976 -30.976 -30.752 -30.752 -30.976 -30.976 -30.752 -30.752 -30.976 -30.976 -30.752 -30.752 -30.976 -31.0869 -30.8799 -30.8799 -31.0869 -31.0869 -30.8799 -30.8799 -31.0869 -31.0869 -30.8799 -30.8799 -31.0869 -31.0869 -30.8799 -30.8799 -31.0869 -31.0869 -30.8799 -30.8799 -31.0869 -31.4025 -31.2441 -31.4045 -31.2441 -31.4025 -31.4025 -31.2441 -31.2441 -31.4025 -31.4025 -31.2441 -31.2441 -31.4025 -31.4025 -31.2441 -31.2441 -31.4025 -31.4025 -31.2441 -31.2441 -31.4025 -31.8749 -31.7891 -31.8759 -31.7891 -31.8749 -31.8749 -31.7891 -31.7891 -31.8749 -31.8749 -31.7891 -31.7891 -31.8749 -31.8749 -31.7892 -31.7892 -31.8749 -31.8749 -31.7892 -31.7892 -31.8749 -32.4321 -32.4321 -32.4321 -32.4321 -32.4321 -32.4321 -32.4321 -32.4321 -32.4321 -32.4321 -32.4321 -32.4321 -32.4321 -32.4321 -32.4321 -32.4321 -32.4321 -32.4321 -32.4321 -32.4321 -32.4321 -32.9893 -33.075 -32.9882 -33.075 -32.9893 -32.9893 -33.075 -33.075 -32.9893 -32.9893 -33.075 -33.075 -32.9893 -32.9893 -33.075 -33.075 -32.9893 -32.9893 -33.075 -33.075 -32.9893 -33.4617 -33.6201 -33.4597 -33.6201 -33.4617 -33.4617 -33.6201 -33.6201 -33.4617 -33.4617 -33.6201 -33.6201 -33.4617 -33.4617 -33.6201 -33.6201 -33.4617 -33.4617 -33.6201 -33.6201 -33.4617 -33.7773 -33.9843 -33.7747 -33.9843 -33.7773 -33.7773 -33.9843 -33.9843 -33.7773 -33.7773 -33.9843 -33.9843 -33.7773 -33.7773 -33.9843 -33.9843 -33.7773 -33.7773 -33.9843 -33.9843 -33.7773 -33.8881 -34.1121 -33.8853 -34.1121 -33.8881 -33.8881 -34.1121 -34.1121 -33.8881 -33.8881 -34.1121 -34.1121 -33.8881 -33.8881 -34.1122 -34.1122 -33.8881 -33.8881 -34.1122 -34.1122 -33.8881 -33.7773 -33.9843 -33.7747 -33.9843 -33.7773 -33.7773 -33.9843 -33.9843 -33.7773 -33.7773 -33.9843 -33.9843 -33.7773 -33.7773 -33.9843 -33.9843 -33.7773 -33.7773 -33.9843 -33.9843 -33.7773 -33.4617 -33.6201 -33.4597 -33.6201 -33.4617 -33.4617 -33.6201 -33.6201 -33.4617 -33.4617 -33.6201 -33.6201 -33.4617 -33.4617 -33.6201 -33.6201 -33.4617 -33.4617 -33.6201 -33.6201 -33.4617 -32.9893 -33.075 -32.9882 -33.075 -32.9893 -32.9893 -33.075 -33.075 -32.9893 -32.9893 -33.075 -33.075 -32.9893 -32.9893 -33.075 -33.075 -32.9893 -32.9893 -33.075 -33.075 -32.9893 -32.4321 -31.0894 -31.0894 -30.9788 -32.4321 -31.4045 -31.8759 -32.4321 -32.9882 -33.4597 -33.7747 -33.8853 -33.7747 -33.4597 -32.9882 -32.4321 -31.8759 -31.4045 -31.0894 -31.9841 -31.9841 -32.8801 -32.8801 -31.9841 -32.8801 -31.9841 -32.8801 -31.9841 -31.9841 -32.8801 -32.8801 -31.9841 -32.8801 -32.4321 -31.9841 -32.8801 -32.4321 -31.9841 -32.8801 -32.9893 -32.4321 -32.4321 -33.4617 -33.7773 -33.8881 -33.7773 -33.4617 -32.9893 -32.4321 -31.8749 -31.4025 -31.0869 -30.976 -31.0869 -31.4025 -31.8749 -32.9893 -32.4321 -33.4617 -33.7773 -33.8881 -33.7773 -33.4617 -32.9893 -32.4321 -31.8749 -31.4025 -31.0869 -30.976 -31.0869 -31.4025 -31.8749 -32.4321 -32.4321 -32.4321 -31.8721 -30.752 -32.4321 -31.8721 -32.4321 -30.752 -32.4321 -30.752 -32.4321 -30.752 -32.4321 -30.752 -32.4321 -30.752 -32.4321 -30.752 -32.4321 -31.8721 -32.4321 -32.4321 -30.752 -31.8721 -32.4321 -30.752 -32.4321 -30.752 -32.4321 -30.752 -32.4321 -30.752 -32.4321 -30.752 -32.4321 -30.752 -32.4321 -30.752 -32.4321 -30.752 -32.4321 -30.752 -32.4321 -30.752 -32.4321 -30.752 -31.8721 -31.8721 -30.7997 -30.7997 -31.8721 -31.8721 -31.6232 -30.7894 -30.7894 -31.6232 -31.1814 -32.0152 -32.0152 -31.1814 -32.9921 -34.1121 -32.9921 -34.1121 -34.1122 -34.1122 -34.1122 -34.1122 -34.1122 -32.9921 -34.1122 -32.9921 -34.1122 -34.1122 -34.1122 -34.1122 -34.1122 -34.1122 -34.1122 -34.1122 -34.1122 -34.1122 -34.1122 -32.9921 -32.9921 -34.0645 -34.0645 -32.9921 -32.9921 -33.241 -34.0748 -34.0748 -33.241 -32.849 -33.6828 -32.849 -33.6828 29.5966 29.5966 30.8287 30.8287 29.5966 30.8287 29.5966 30.8287 29.5966 30.8287 29.5966 30.8287 29.5966 30.8287 29.5966 30.8287 29.5966 30.8287 -31.9841 -31.9841 -32.8801 -32.8801 -31.9841 -32.8801 -31.9841 -32.8801 -31.9841 -32.8801 -31.9841 -32.8801 -31.9841 -32.8801 -31.9841 -31.9841 -32.8801 -32.8801 -31.9841 -32.8801 -31.9841 -32.8801 -31.9841 -32.8801 -31.9841 -32.8801 -31.9841 -32.8801 -32.2081 -32.2081 -32.6561 -32.6561 -32.2081 -32.6561 -32.2081 -32.6561 -32.2081 -32.6561 -32.2081 -32.2081 -32.6561 -32.6561 27.6925 27.6925 28.1406 28.1406 27.6925 28.1406 27.6925 28.1406 27.6925 28.1406 27.6925 27.6925 28.1406 28.1406 27.4685 27.4685 28.3646 28.3646 27.4685 28.3646 27.4685 28.3646 27.4685 28.3646 27.4685 28.3646 27.4685 28.3646 27.4685 27.4685 28.3646 28.3646 27.4685 28.3646 27.4685 28.3646 27.4685 28.3646 27.4685 28.3646 27.4685 28.3646 29.4892 29.451 30.8287 30.8287 29.5966 30.8287 29.5966 30.8287 29.5966 30.8287 29.5966 30.8287 29.5966 30.8287 29.5966 30.8287 29.4892 30.8287 27.4965 27.4965 28.3366 28.3366 27.4965 28.3366 27.4965 28.3366 27.4965 28.3366 27.4965 28.3366 27.4965 28.3366 27.4965 28.3366 27.4965 28.3366 27.4965 28.3366 27.4965 28.3366 27.2165 27.2165 27.2165 27.2165 27.2165 27.2165 27.2165 27.2165 27.2165 28.6166 28.6166 28.6166 28.6166 28.6166 28.6166 28.6166 28.6166 28.6166 27.9165 27.9165 26.0328 25.8827 27.9165 26.2365 27.9165 26.2365 27.9165 25.3201 25.8831 27.9165 25.2182 27.9165 25.1437 27.9165 25.1164 27.9165 25.1437 27.9165 25.2182 25.3201 26.1754 25.8495 25.5644 25.483 25.8495 25.9106 26.0328 26.1754 25.9106 26.2467 26.3688 26.2467 26.5114 26.5114 26.1856 25.9112 25.9005 25.8801 26.1856 25.819 25.9208 25.5752 25.5848 25.5441 24.6582 24.76 24.76 24.5837 24.5564 24.5837 24.6582 24.76 24.8619 24.9364 24.9637 24.9364 24.8619 25.4219 25.4964 25.5237 25.4964 25.4219 29.8003 29.9504 29.5966 29.5966 30.513 29.95 30.6148 30.6894 30.7167 30.6894 30.6148 30.513 29.6577 29.9835 30.2686 29.9835 30.3501 29.9224 29.8003 29.6577 29.9224 29.4642 29.5864 29.5864 29.3217 29.3217 29.9219 29.6475 29.9326 29.6475 29.953 30.0141 29.9123 30.2579 30.2483 30.289 31.073 31.1749 31.073 31.2494 31.2767 31.2494 31.1749 31.073 30.9712 30.8967 30.8694 30.8967 30.9712 30.4112 30.3366 30.3094 30.3366 30.4112 27.3565 27.3565 26.7965 26.7965 27.3565 26.7965 27.3565 26.7965 27.3565 27.3565 26.7965 26.7965 27.3565 26.7965 26.2365 26.2365 25.2284 25.2284 26.2365 25.2284 26.2365 25.2284 26.2365 25.2284 26.2365 25.2284 26.2365 25.2284 26.7965 26.7965 27.3565 27.3565 27.9165 27.9165 26.2365 27.5805 26.2365 27.5805 25.2284 25.2284 27.1325 27.1325 27.3565 27.3565 27.3565 27.3565 27.9165 27.9165 28.4766 28.4766 29.0366 29.0366 28.4766 29.0366 28.4766 29.0366 28.4766 28.4766 29.0366 29.0366 28.4766 29.0366 29.5966 29.5966 30.6046 30.6046 29.5966 30.6046 29.5966 30.6046 29.5966 30.6046 29.5966 30.6046 29.5966 30.6046 29.0366 29.0366 28.4766 28.4766 28.2526 29.5966 29.5966 28.2526 30.6046 30.6046 28.7006 28.7006 28.4766 28.4766 28.4766 28.4766 28.5595 29.1045 29.1045 28.5595 29.4687 29.4687 29.5966 29.5966 29.5966 28.4766 28.4766 29.5966 28.4766 28.4766 27.3572 27.3565 27.3565 27.3572 26.2365 26.2365 26.2365 26.2365 26.3644 26.3644 26.7286 26.7286 27.2736 27.2736 27.3593 27.3593 27.3579 27.3579 28.4766 28.4766 28.4766 28.4766 27.3565 28.4766 27.3565 28.4766 27.3565 28.4766 27.3565 28.4766 27.3565 28.4766 27.3565 28.4766 27.3565 28.4766 27.3565 28.4766 27.3565 28.4766 27.3565 28.4766 27.3565 28.4766 27.3565 28.4766 27.3565 28.4766 27.3565 28.4766 27.9165 27.9165 28.0285 28.0845 28.1105 28.2075 28.1405 28.2526 28.1105 28.2075 28.0285 28.0845 27.9165 27.9165 27.8045 27.7485 27.7225 27.6255 27.6925 27.5805 27.7225 27.6255 27.8045 27.7485 27.9165 28.0845 28.2075 28.2522 28.2075 28.0845 27.9165 27.7485 27.6255 27.5809 27.6255 27.7485 27.9165 28.0285 28.0959 28.1105 28.1405 28.1179 28.1105 28.0285 27.9165 27.8045 27.7225 27.7152 27.6925 27.7225 27.7372 27.8045 27.9165 27.7485 27.9165 27.8045 27.6255 27.7225 27.5805 27.6925 27.6255 27.7225 27.7485 27.8045 27.9165 27.9165 28.0845 28.0285 28.2075 28.1105 28.2526 28.1405 28.2075 28.1105 28.0845 28.0285 27.7647 27.9165 27.7485 27.6255 27.5882 27.5805 27.6255 27.7485 27.9165 28.0845 28.2075 28.2526 28.2449 28.2075 28.0845 28.0684 27.9165 27.8617 27.8045 27.7225 27.7114 27.6925 27.7212 27.8045 27.9165 28.0285 28.1118 28.1405 28.1217 28.1105 28.0285 27.9713 28.5886 28.5886 27.2445 27.2445 28.5222 28.5108 28.5062 28.5263 28.5062 28.5108 28.5222 27.3067 27.3269 27.3223 27.3109 27.3109 27.3223 27.3269 27.9165 28.3917 27.9165 28.3917 28.5886 28.5886 28.3917 28.3917 27.9165 27.9165 27.4413 27.4413 27.2445 27.2445 27.4413 27.4413 28.3917 27.9165 28.5886 28.3917 27.9165 27.4413 27.2445 27.4413 28.3917 27.9165 28.5886 28.3917 27.9165 27.4413 27.2445 27.4413 28.3917 27.9165 28.5886 28.3917 27.9165 27.4413 27.2445 27.4413 28.3917 27.9165 28.5886 28.3917 27.9165 27.4413 27.2445 27.4413 28.3917 27.9165 28.5886 28.3917 27.9165 27.4413 27.2445 27.4413 28.3917 27.9165 28.5886 28.3917 27.9165 27.4413 27.2445 27.4413 28.3917 27.9165 28.5886 28.3917 27.9165 27.4413 27.2445 27.4413 28.3917 27.9165 28.5886 28.3917 27.9165 27.4413 27.2445 27.4413 -32.4321 -32.4321 -30.5484 -30.3983 -32.4321 -30.752 -32.4321 -30.752 -32.4321 -29.8356 -30.3987 -32.4321 -29.7338 -32.4321 -29.6593 -32.4321 -29.632 -32.4321 -29.6593 -32.4321 -29.7338 -29.8356 -30.6909 -30.3651 -30.08 -30.3651 -29.9985 -30.4262 -30.5484 -30.6909 -30.4262 -30.8844 -30.7622 -30.7622 -31.0269 -31.0269 -30.4267 -30.7011 -30.416 -30.7011 -30.3956 -30.3345 -30.4364 -30.0907 -30.1004 -30.0596 -29.2756 -29.1738 -29.2756 -29.0992 -29.0719 -29.0992 -29.1738 -29.2756 -29.3774 -29.452 -29.4792 -29.452 -29.3774 -29.9374 -30.012 -30.0393 -30.012 -29.9374 -34.3158 -34.4659 -34.1122 -34.1122 -35.0286 -34.4655 -35.1304 -35.2049 -35.2322 -35.2049 -35.1304 -35.0286 -34.1732 -34.4991 -34.7842 -34.8656 -34.4991 -34.438 -34.3158 -34.1732 -34.438 -34.102 -33.9798 -34.102 -33.8372 -33.8372 -34.1631 -34.4374 -34.4482 -34.4685 -34.1631 -34.5296 -34.4278 -34.7734 -34.7638 -34.8045 -35.6904 -35.5886 -35.5886 -35.7649 -35.7922 -35.7649 -35.6904 -35.5886 -35.4868 -35.4122 -35.3849 -35.4122 -35.4868 -34.9267 -34.8522 -34.8249 -34.8522 -34.9267 -31.8721 -31.8721 -31.312 -31.312 -31.8721 -31.312 -31.8721 -31.312 -31.8721 -31.8721 -31.312 -31.312 -31.8721 -31.312 -30.752 -30.752 -29.744 -29.744 -30.752 -29.744 -30.752 -29.744 -30.752 -29.744 -30.752 -29.744 -30.752 -29.744 -31.312 -31.312 -31.8721 -31.8721 -32.4321 -32.4321 -32.0961 -30.752 -30.752 -32.0961 -29.744 -29.744 -31.6481 -31.6481 -31.8721 -31.8721 -31.8721 -31.8721 -32.4321 -32.4321 -32.9921 -32.9921 -33.5521 -33.5521 -32.9921 -33.5521 -32.9921 -33.5521 -32.9921 -32.9921 -33.5521 -33.5521 -32.9921 -33.5521 -34.1122 -34.1122 -35.1202 -35.1202 -34.1122 -35.1202 -34.1122 -35.1202 -34.1122 -35.1202 -34.1122 -35.1202 -34.1122 -35.1202 -33.5521 -33.5521 -32.9921 -32.9921 -34.1122 -32.7681 -34.1122 -32.7681 -35.1202 -35.1202 -33.2161 -33.2161 -32.9921 -32.9921 -32.9921 -32.9921 -34.1122 -34.1122 -35.3442 -35.3442 -34.1122 -35.3442 -34.1122 -35.3442 -34.1122 -35.3442 -34.1122 -35.3442 -34.1122 -35.3442 -34.1122 -35.3442 -34.1122 -35.3442 -33.9665 -34.0047 -35.3442 -35.3442 -34.1122 -35.3442 -34.1122 -35.3442 -34.1122 -35.3442 -34.1122 -35.3442 -34.1122 -35.3442 -34.1122 -35.3442 -34.0047 -35.3442 -32.0121 -32.0121 -32.8521 -32.8521 -32.0121 -32.8521 -32.0121 -32.8521 -32.0121 -32.8521 -32.0121 -32.8521 -32.0121 -32.8521 -32.0121 -32.8521 -32.0121 -32.8521 -32.0121 -32.8521 -32.0121 -32.8521 -31.7321 -31.7321 -31.7321 -31.7321 -31.7321 -31.7321 -31.7321 -31.7321 -31.7321 -33.1321 -33.1321 -33.1321 -33.1321 -33.1321 -33.1321 -33.1321 -33.1321 -33.1321 -33.6201 -33.075 -33.6201 -33.075 -33.9843 -33.9843 -34.1122 -34.1122 -32.9921 -34.1122 -32.9921 -34.1122 -32.9921 -32.9921 -31.8721 -31.8728 -31.8721 -31.8728 -30.752 -30.752 -30.752 -30.752 -30.8799 -30.8799 -31.2441 -31.2441 -31.7892 -31.7892 -31.8749 -31.8749 -31.8735 -31.8735 -32.9921 -32.9921 -32.9921 -32.9921 -31.8721 -32.9921 -31.8721 -32.9921 -31.8721 -32.9921 -31.8721 -32.9921 -31.8721 -32.9921 -31.8721 -32.9921 -31.8721 -32.9921 -31.8721 -32.9921 -31.8721 -32.9921 -31.8721 -32.9921 -31.8721 -32.9921 -31.8721 -32.9921 -31.8721 -32.9921 -31.8721 -32.9921 -32.4321 -32.4321 -32.5441 -32.6001 -32.6261 -32.7231 -32.6561 -32.7681 -32.6261 -32.7231 -32.5441 -32.6001 -32.4321 -32.4321 -32.3201 -32.2641 -32.2381 -32.1411 -32.2081 -32.0961 -32.2381 -32.1411 -32.3201 -32.2641 -32.4321 -32.6001 -32.7231 -32.7677 -32.7231 -32.6001 -32.4321 -32.2641 -32.1411 -32.0965 -32.1411 -32.2641 -32.4321 -32.5441 -32.6114 -32.6261 -32.6561 -32.6334 -32.6261 -32.5441 -32.4321 -32.3201 -32.2381 -32.2307 -32.2081 -32.2381 -32.2528 -32.3201 -32.2641 -32.4321 -32.4321 -32.3201 -32.1411 -32.2381 -32.0961 -32.2081 -32.1411 -32.2381 -32.2641 -32.3201 -32.4321 -32.4321 -32.6001 -32.5441 -32.7231 -32.6261 -32.7681 -32.6561 -32.7231 -32.6261 -32.6001 -32.5441 -32.2802 -32.4321 -32.2641 -32.1411 -32.1037 -32.0961 -32.1411 -32.2641 -32.4321 -32.6001 -32.7231 -32.7681 -32.7605 -32.7231 -32.6001 -32.584 -32.4321 -32.3773 -32.3201 -32.2381 -32.2269 -32.2081 -32.2368 -32.3201 -32.4321 -32.5441 -32.6274 -32.6561 -32.6372 -32.6261 -32.5441 -32.4869 -33.1041 -33.1041 -31.7601 -31.7601 -33.0377 -33.0263 -33.0217 -33.0419 -33.0217 -33.0263 -33.0377 -31.8223 -31.8425 -31.8378 -31.8265 -31.8265 -31.8378 -31.8425 -32.9073 -32.4321 -32.4321 -32.9073 -33.1041 -33.1041 -32.9073 -32.9073 -32.4321 -32.4321 -31.9569 -31.9569 -31.76 -31.76 -31.9569 -31.9569 -32.9073 -32.4321 -33.1041 -32.9073 -32.4321 -31.9569 -31.76 -31.9569 -32.9073 -32.4321 -33.1041 -32.9073 -32.4321 -31.9569 -31.76 -31.9569 -32.9073 -32.4321 -33.1041 -32.9073 -32.4321 -31.9569 -31.76 -31.9569 -32.9073 -32.4321 -33.1041 -32.9073 -32.4321 -31.9569 -31.76 -31.9569 -32.9073 -32.4321 -33.1041 -32.9073 -32.4321 -31.9569 -31.76 -31.9569 -32.9073 -32.4321 -33.1041 -32.9073 -32.4321 -31.9569 -31.76 -31.9569 -32.9073 -32.4321 -33.1041 -32.9073 -32.4321 -31.9569 -31.76 -31.9569 -32.9073 -32.4321 -33.1041 -32.9073 -32.4321 -31.9569 -31.76 -31.9569 28.4766 28.4766 28.4766 28.4766 28.4766 28.4766 28.4766 28.4766 28.4766 28.3646 28.3646 28.3646 28.3646 28.3646 28.3646 28.3646 28.3646 28.3646 27.4685 27.4685 27.4685 27.4685 27.4685 27.4685 27.4685 27.4685 27.4685 27.3565 27.3565 27.3565 27.3565 27.3565 27.3565 27.3565 27.3565 27.3565 28.4766 28.4766 28.4766 28.4766 28.4766 28.4766 28.4766 28.4766 28.4766 28.3646 28.3646 28.3646 28.3646 28.3646 28.3646 28.3646 28.3646 28.3646 27.4685 27.4685 27.4685 27.4685 27.4685 27.4685 27.4685 27.4685 27.4685 27.3565 27.3565 27.3565 27.3565 27.3565 27.3565 27.3565 27.3565 27.3565 -31.9841 -31.9841 -31.9841 -31.9841 -31.9841 -31.9841 -31.9841 -31.9841 -31.9841 -31.8721 -31.8721 -31.8721 -31.8721 -31.8721 -31.8721 -31.8721 -31.8721 -31.8721 -32.9921 -32.9921 -32.9921 -32.9921 -32.9921 -32.9921 -32.9921 -32.9921 -32.9921 -32.8801 -32.8801 -32.8801 -32.8801 -32.8801 -32.8801 -32.8801 -32.8801 -32.8801 -32.9921 -32.9921 -32.9921 -32.9921 -32.9921 -32.9921 -32.9921 -32.9921 -32.9921 -32.8801 -32.8801 -32.8801 -32.8801 -32.8801 -32.8801 -32.8801 -32.8801 -32.8801 -31.9841 -31.9841 -31.9841 -31.9841 -31.9841 -31.9841 -31.9841 -31.9841 -31.9841 -31.8721 -31.8721 -31.8721 -31.8721 -31.8721 -31.8721 -31.8721 -31.8721 -31.8721 -6.2339 -6.2339 -6.2339 -6.2339 -5.8979 -5.8979 -5.8979 -5.8979 -6.2339 -6.2339 -6.4579 -6.4579 -6.4579 -4.2178 -4.2178 -4.2178 -4.4419 -4.4419 -4.7779 -4.7779 -4.7779 -4.7779 -4.4419 -4.4419 -4.4419 -4.4419 -6.2339 -6.2339 -5.8979 -5.8979 -6.2339 -6.4579 -4.2178 -4.4419 -4.7779 -4.7779 -4.4419 -4.4419 -6.2339 -6.2339 -5.8979 -5.8979 -6.2339 -6.4579 -4.2178 -4.4419 -4.7779 -4.7779 -4.4419 -4.4419 -6.2339 -6.2339 -5.8979 -5.8979 -6.2339 -6.4579 -4.2178 -4.4419 -4.7779 -4.7779 -4.4419 -4.4419 -6.2339 -6.2339 -5.8979 -5.8979 -6.2339 -6.4579 -4.2178 -4.4419 -4.7779 -4.7779 -4.4419 -4.4419 -6.2339 -6.2339 -5.8979 -5.8979 -6.2339 -6.4579 -4.2178 -4.4419 -4.7779 -4.7779 -4.4419 -4.4419 -6.2339 -6.2339 -5.8979 -5.8979 -6.2339 -6.4579 -4.2178 -4.4419 -4.7779 -4.7779 -4.4419 -4.4419 -6.2339 -6.2339 -5.8979 -5.8979 -6.2339 -6.4579 -4.2178 -4.4419 -4.7779 -4.7779 -4.4419 -4.4419 -6.2339 -6.2339 -5.8979 -5.8979 -6.2339 -6.4579 -4.2178 -4.4419 -4.7779 -4.7779 -4.4419 -4.4419 -6.2339 -6.2339 -5.8979 -5.8979 -6.2339 -6.4579 -4.2178 -4.4419 -4.7779 -4.7779 -4.4419 -4.4419 -6.2339 -6.2339 -5.8979 -5.8979 -6.2339 -6.4579 -4.2178 -4.4419 -4.7779 -4.7779 -4.4419 -4.4419 -6.2339 -6.2339 -5.8979 -5.8979 -6.2339 -6.4579 -4.2178 -4.4419 -4.7779 -4.7779 -4.4419 -4.4419 -6.2339 -6.2339 -5.8979 -5.8979 -6.2339 -6.4579 -4.2178 -4.4419 -4.7779 -4.7779 -4.4419 -4.4419 -6.2339 -6.2339 -5.8979 -5.8979 -6.2339 -6.4579 -4.2178 -4.4419 -4.7779 -4.7779 -4.4419 -4.4419 -6.2339 -6.2339 -5.8979 -5.8979 -6.2339 -6.4579 -4.2178 -4.4419 -4.7779 -4.7779 -4.4419 -4.4419 -6.2339 -6.2339 -5.8979 -5.8979 -6.2339 -6.4579 -4.2178 -4.4419 -4.7779 -4.7779 -4.4419 -4.4419 -6.2339 -6.2339 -5.8979 -5.8979 -6.2339 -6.4579 -4.2178 -4.4419 -4.7779 -4.7779 -4.4419 -4.4419 -6.2339 -6.2339 -5.8979 -5.8979 -6.2339 -6.4579 -4.2178 -4.4419 -4.7779 -4.7779 -4.4419 -4.4419 -6.2339 -6.2339 -5.8979 -5.8979 -6.2339 -6.4579 -4.2178 -4.4419 -4.7779 -4.7779 -4.4419 -4.4419 -6.2339 -6.2339 -5.8979 -5.8979 -6.2339 -6.4579 -4.2178 -4.4419 -4.7779 -4.7779 -4.4419 -4.4419 -6.2339 -6.2339 -5.8979 -5.8979 -6.2339 -6.4579 -4.2178 -4.4419 -4.7779 -4.7779 -4.4419 -4.4419 -6.2339 -6.2339 -5.8979 -5.8979 -6.2339 -6.4579 -4.2178 -4.4419 -4.7779 -4.7779 -4.4419 -4.4419 -6.2339 -6.2339 -5.8979 -5.8979 -6.2339 -6.4579 -4.2178 -4.4419 -4.7779 -4.7779 -4.4419 -4.4419 -6.2339 -6.2339 -5.8979 -5.8979 -6.2339 -6.4579 -4.2178 -4.4419 -4.7779 -4.7779 -4.4419 -4.4419 -6.2339 -6.2339 -5.8979 -5.8979 -6.2339 -6.4579 -4.2178 -4.4419 -4.7779 -4.7779 -4.4419 -4.4419 -6.2339 -6.2339 -5.8979 -5.8979 -6.2339 -6.4579 -4.2178 -4.4419 -4.7779 -4.7779 -4.4419 -4.4419 -6.2339 -6.2339 -5.8979 -5.8979 -6.2339 -6.4579 -4.2178 -4.4419 -4.7779 -4.7779 -4.4419 -4.4419 -6.2339 -6.2339 -5.8979 -5.8979 -6.2339 -6.4579 -4.2178 -4.4419 -4.7779 -4.7779 -4.4419 -4.4419 -6.2339 -6.2339 -5.8979 -5.8979 -6.2339 -6.4579 -4.2178 -4.4419 -4.7779 -4.7779 -4.4419 -4.4419 -6.2339 -6.2339 -5.8979 -5.8979 -6.2339 -6.4579 -4.2178 -4.4419 -4.7779 -4.7779 -4.4419 -4.4419 -6.2339 -6.2339 -5.8979 -5.8979 -6.2339 -6.4579 -4.2178 -4.4419 -4.7779 -4.7779 -4.4419 -4.4419 -0.6337 -0.6337 -0.6337 -0.6337 -0.2977 -0.2977 -0.2977 -0.2977 -0.6337 -0.6337 -0.8577 -0.8577 -0.8577 1.3824 1.3824 1.3824 1.1584 1.1584 0.8224 0.8224 0.8224 0.8224 1.1584 1.1584 1.1584 1.1584 -0.6337 -0.6337 -0.2977 -0.2977 -0.6337 -0.8577 1.3824 1.1584 0.8224 0.8224 1.1584 1.1584 -0.6337 -0.6337 -0.2977 -0.2977 -0.6337 -0.8577 1.3824 1.1584 0.8224 0.8224 1.1584 1.1584 -0.6337 -0.6337 -0.2977 -0.2977 -0.6337 -0.8577 1.3824 1.1584 0.8224 0.8224 1.1584 1.1584 -0.6337 -0.6337 -0.2977 -0.2977 -0.6337 -0.8577 1.3824 1.1584 0.8224 0.8224 1.1584 1.1584 -0.6337 -0.6337 -0.2977 -0.2977 -0.6337 -0.8577 1.3824 1.1584 0.8224 0.8224 1.1584 1.1584 -0.6337 -0.6337 -0.2977 -0.2977 -0.6337 -0.8577 1.3824 1.1584 0.8224 0.8224 1.1584 1.1584 -0.6337 -0.6337 -0.2977 -0.2977 -0.6337 -0.8577 1.3824 1.1584 0.8224 0.8224 1.1584 1.1584 -0.6337 -0.6337 -0.2977 -0.2977 -0.6337 -0.8577 1.3824 1.1584 0.8224 0.8224 1.1584 1.1584 -0.6337 -0.6337 -0.2977 -0.2977 -0.6337 -0.8577 1.3824 1.1584 0.8224 0.8224 1.1584 1.1584 -0.6337 -0.6337 -0.2977 -0.2977 -0.6337 -0.8577 1.3824 1.1584 0.8224 0.8224 1.1584 1.1584 -0.6337 -0.6337 -0.2977 -0.2977 -0.6337 -0.8577 1.3824 1.1584 0.8224 0.8224 1.1584 1.1584 -0.6337 -0.6337 -0.2977 -0.2977 -0.6337 -0.8577 1.3824 1.1584 0.8224 0.8224 1.1584 1.1584 -0.6337 -0.6337 -0.2977 -0.2977 -0.6337 -0.8577 1.3824 1.1584 0.8224 0.8224 1.1584 1.1584 -0.6337 -0.6337 -0.2977 -0.2977 -0.6337 -0.8577 1.3824 1.1584 0.8224 0.8224 1.1584 1.1584 -0.6337 -0.6337 -0.2977 -0.2977 -0.6337 -0.8577 1.3824 1.1584 0.8224 0.8224 1.1584 1.1584 -0.6337 -0.6337 -0.2977 -0.2977 -0.6337 -0.8577 1.3824 1.1584 0.8224 0.8224 1.1584 1.1584 -0.6337 -0.6337 -0.2977 -0.2977 -0.6337 -0.8577 1.3824 1.1584 0.8224 0.8224 1.1584 1.1584 -0.6337 -0.6337 -0.2977 -0.2977 -0.6337 -0.8577 1.3824 1.1584 0.8224 0.8224 1.1584 1.1584 -0.6337 -0.6337 -0.2977 -0.2977 -0.6337 -0.8577 1.3824 1.1584 0.8224 0.8224 1.1584 1.1584 -0.6337 -0.6337 -0.2977 -0.2977 -0.6337 -0.8577 1.3824 1.1584 0.8224 0.8224 1.1584 1.1584 -0.6337 -0.6337 -0.2977 -0.2977 -0.6337 -0.8577 1.3824 1.1584 0.8224 0.8224 1.1584 1.1584 -0.6337 -0.6337 -0.2977 -0.2977 -0.6337 -0.8577 1.3824 1.1584 0.8224 0.8224 1.1584 1.1584 -0.6337 -0.6337 -0.2977 -0.2977 -0.6337 -0.8577 1.3824 1.1584 0.8224 0.8224 1.1584 1.1584 -0.6337 -0.6337 -0.2977 -0.2977 -0.6337 -0.8577 1.3824 1.1584 0.8224 0.8224 1.1584 1.1584 -0.6337 -0.6337 -0.2977 -0.2977 -0.6337 -0.8577 1.3824 1.1584 0.8224 0.8224 1.1584 1.1584 -0.6337 -0.6337 -0.2977 -0.2977 -0.6337 -0.8577 1.3824 1.1584 0.8224 0.8224 1.1584 1.1584 -0.6337 -0.6337 -0.2977 -0.2977 -0.6337 -0.8577 1.3824 1.1584 0.8224 0.8224 1.1584 1.1584 -0.6337 -0.6337 -0.2977 -0.2977 -0.6337 -0.8577 1.3824 1.1584 0.8224 0.8224 1.1584 1.1584 -0.6337 -0.6337 -0.2977 -0.2977 -0.6337 -0.8577 1.3824 1.1584 0.8224 0.8224 1.1584 1.1584 -0.6337 -0.6337 -0.2977 -0.2977 -0.6337 -0.8577 1.3824 1.1584 0.8224 0.8224 1.1584 1.1584 -5.5619 -5.8916 -5.8916 -5.5619 -6.13 -6.13 -6.2931 -6.2931 -6.397 -6.397 -6.4579 -6.4579 -6.4561 -6.4561 -6.4167 -6.4167 -6.3558 -6.3558 -6.2895 -6.2895 -6.2339 -6.2339 -4.4419 -4.3863 -4.3863 -4.4419 -4.32 -4.32 -4.2591 -4.2591 -4.2196 -4.2196 -4.2178 -4.2178 -4.2788 -4.2788 -4.3827 -4.3827 -4.5458 -4.5458 -4.7841 -4.7841 -5.1139 -5.1139 -5.8916 -5.5619 -6.13 -6.2931 -6.397 -6.4579 -6.4561 -6.4167 -6.3558 -6.2895 -6.2339 -4.3863 -4.4419 -4.32 -4.2591 -4.2196 -4.2178 -4.2788 -4.3827 -4.5458 -4.7841 -5.1139 -5.8916 -5.5619 -6.13 -6.2931 -6.397 -6.4579 -6.4561 -6.4167 -6.3558 -6.2895 -6.2339 -4.3863 -4.4419 -4.32 -4.2591 -4.2196 -4.2178 -4.2788 -4.3827 -4.5458 -4.7841 -5.1139 -5.8916 -5.5619 -6.13 -6.2931 -6.397 -6.4579 -6.4561 -6.4167 -6.3558 -6.2895 -6.2339 -4.3863 -4.4419 -4.32 -4.2591 -4.2196 -4.2178 -4.2788 -4.3827 -4.5458 -4.7841 -5.1139 -5.8916 -5.5619 -6.13 -6.2931 -6.397 -6.4579 -6.4561 -6.4167 -6.3558 -6.2895 -6.2339 -4.3863 -4.4419 -4.32 -4.2591 -4.2196 -4.2178 -4.2788 -4.3827 -4.5458 -4.7841 -5.1139 -5.8916 -5.5619 -6.13 -6.2931 -6.397 -6.4579 -6.4561 -6.4167 -6.