# EXPORT MODE: CHECK_POINT
TITLE="FE Surface Data ASCII"
VARIABLES="X", "Y", "Z", "T", "Hw", "Hi", "HTC", "Beta", "TauX", "TauY", "TauZ"
ZONE T="ZONE 1"
NODES=388
ELEMENTS=384
DATAPACKING=BLOCK
ZONETYPE=FETRIANGLE
VARLOCATION=([4-11]=CELLCENTERED)
3.527069999999999927e-01 3.525860000000000105e-01 3.524519999999999875e-01 3.523020000000000040e-01 3.521299999999999986e-01 3.519280000000000186e-01 3.516889999999999739e-01 3.514010000000000189e-01 3.510510000000000019e-01 3.506219999999999892e-01 3.500909999999999855e-01 3.494329999999999936e-01 3.486150000000000082e-01 3.475949999999999873e-01 3.463249999999999940e-01 3.447470000000000256e-01 3.427950000000000164e-01 3.403900000000000259e-01 3.374480000000000257e-01 3.338740000000000041e-01 3.295730000000000048e-01 3.244460000000000122e-01 3.183989999999999876e-01 3.113520000000000176e-01 3.032389999999999808e-01 2.940220000000000056e-01 2.836940000000000017e-01 2.722829999999999973e-01 2.598619999999999819e-01 2.465430000000000121e-01 2.324759999999999882e-01 2.178499999999999881e-01 2.028739999999999988e-01 1.877769999999999995e-01 1.727910000000000001e-01 1.581400000000000028e-01 1.440299999999999914e-01 1.306390000000000051e-01 1.181100000000000066e-01 1.065480000000000038e-01 9.601800000000000612e-02 8.654599999999999793e-02 7.812399999999999900e-02 7.071800000000000308e-02 6.426500000000000268e-02 5.869300000000000211e-02 5.391499999999999765e-02 4.984299999999999842e-02 4.638899999999999968e-02 4.346599999999999769e-02 4.099799999999999972e-02 3.891300000000000314e-02 3.714699999999999946e-02 3.564699999999999813e-02 3.436499999999999971e-02 3.325999999999999790e-02 3.230000000000000232e-02 3.145400000000000279e-02 3.069799999999999959e-02 3.001200000000000048e-02 2.932699999999999890e-02 2.857399999999999871e-02 2.775800000000000142e-02 2.688099999999999865e-02 2.595300000000000037e-02 2.497500000000000067e-02 2.395600000000000160e-02 2.290499999999999828e-02 2.182999999999999871e-02 2.073699999999999849e-02 1.963399999999999868e-02 1.852799999999999933e-02 1.742499999999999952e-02 1.633199999999999930e-02 1.525400000000000020e-02 1.419499999999999929e-02 1.315999999999999982e-02 1.215100000000000034e-02 1.117300000000000064e-02 1.022499999999999971e-02 9.312000000000000832e-03 8.432999999999999524e-03 7.590000000000000392e-03 6.784000000000000100e-03 6.015999999999999646e-03 5.285999999999999900e-03 2.246999999999999865e-03 1.771999999999999921e-03 1.345999999999999974e-03 9.740000000000000394e-04 6.570000000000000319e-04 4.000000000000000192e-04 2.049999999999999956e-04 7.399999999999999623e-05 7.999999999999999638e-06 7.999999999999999638e-06 7.299999999999999903e-05 2.039999999999999984e-04 3.989999999999999949e-04 6.560000000000000076e-04 9.730000000000000151e-04 1.345999999999999974e-03 1.771000000000000005e-03 2.246000000000000166e-03 2.768000000000000061e-03 3.334999999999999857e-03 3.943999999999999589e-03 4.593999999999999993e-03 5.284999999999999767e-03 6.015000000000000381e-03 6.782999999999999967e-03 7.589000000000000259e-03 8.432000000000000259e-03 9.310000000000000567e-03 1.022400000000000045e-02 1.117100000000000037e-02 1.214999999999999934e-02 1.315900000000000056e-02 1.419400000000000002e-02 1.525299999999999920e-02 1.633099999999999830e-02 1.742300000000000099e-02 1.852699999999999833e-02 1.963300000000000115e-02 2.073600000000000096e-02 2.182900000000000118e-02 2.290400000000000075e-02 2.395500000000000060e-02 2.497299999999999867e-02 2.595099999999999837e-02 2.688000000000000111e-02 2.775700000000000042e-02 2.857300000000000118e-02 2.932600000000000137e-02 3.001099999999999948e-02 3.069699999999999859e-02 3.145300000000000179e-02 3.229900000000000132e-02 3.325899999999999690e-02 3.436399999999999871e-02 3.564599999999999713e-02 3.714599999999999846e-02 3.891200000000000214e-02 4.099699999999999872e-02 4.346499999999999669e-02 4.638699999999999768e-02 4.984100000000000336e-02 5.391399999999999665e-02 5.869100000000000011e-02 6.426300000000000068e-02 7.071600000000000108e-02 7.812299999999999800e-02 8.654399999999999593e-02 9.601600000000000412e-02 1.065460000000000018e-01 1.181080000000000046e-01 1.306370000000000031e-01 1.440289999999999904e-01 1.581390000000000018e-01 1.727899999999999991e-01 1.877759999999999985e-01 2.028729999999999978e-01 2.178489999999999871e-01 2.324759999999999882e-01 2.465420000000000111e-01 2.598619999999999819e-01 2.722829999999999973e-01 2.836929999999999730e-01 2.940220000000000056e-01 3.032389999999999808e-01 3.113520000000000176e-01 3.184000000000000163e-01 3.244460000000000122e-01 3.295730000000000048e-01 3.338749999999999774e-01 3.374480000000000257e-01 3.403900000000000259e-01 3.427950000000000164e-01 3.447470000000000256e-01 3.463249999999999940e-01 3.475949999999999873e-01 3.486150000000000082e-01 3.494329999999999936e-01 3.500909999999999855e-01 3.506219999999999892e-01 3.510510000000000019e-01 3.514010000000000189e-01 3.516889999999999739e-01 3.519280000000000186e-01 3.521299999999999986e-01 3.523020000000000040e-01 3.524519999999999875e-01 3.525860000000000105e-01 3.527069999999999927e-01 3.527069999999999927e-01 3.525860000000000105e-01 3.524519999999999875e-01 3.523020000000000040e-01 3.521299999999999986e-01 3.519280000000000186e-01 3.516889999999999739e-01 3.514010000000000189e-01 3.510510000000000019e-01 3.506219999999999892e-01 3.500909999999999855e-01 3.494329999999999936e-01 3.486150000000000082e-01 3.475949999999999873e-01 3.463249999999999940e-01 3.447470000000000256e-01 3.427950000000000164e-01 3.403900000000000259e-01 3.374480000000000257e-01 3.338740000000000041e-01 3.295730000000000048e-01 3.244460000000000122e-01 3.183989999999999876e-01 3.113520000000000176e-01 3.032389999999999808e-01 2.940220000000000056e-01 2.836940000000000017e-01 2.722829999999999973e-01 2.598619999999999819e-01 2.465430000000000121e-01 2.324759999999999882e-01 2.178499999999999881e-01 2.028739999999999988e-01 1.877769999999999995e-01 1.727910000000000001e-01 1.581400000000000028e-01 1.440299999999999914e-01 1.306390000000000051e-01 1.181100000000000066e-01 1.065480000000000038e-01 9.601800000000000612e-02 8.654599999999999793e-02 7.812399999999999900e-02 7.071800000000000308e-02 6.426500000000000268e-02 5.869300000000000211e-02 5.391499999999999765e-02 4.984299999999999842e-02 4.638899999999999968e-02 4.346599999999999769e-02 4.099799999999999972e-02 3.891300000000000314e-02 3.714699999999999946e-02 3.564699999999999813e-02 3.436499999999999971e-02 3.325999999999999790e-02 3.230000000000000232e-02 3.145400000000000279e-02 3.069799999999999959e-02 3.001200000000000048e-02 2.932699999999999890e-02 2.857399999999999871e-02 2.775800000000000142e-02 2.688099999999999865e-02 2.595300000000000037e-02 2.497500000000000067e-02 2.395600000000000160e-02 2.290499999999999828e-02 2.182999999999999871e-02 2.073699999999999849e-02 1.963399999999999868e-02 1.852799999999999933e-02 1.742499999999999952e-02 1.633199999999999930e-02 1.525400000000000020e-02 1.419499999999999929e-02 1.315999999999999982e-02 1.215100000000000034e-02 1.117300000000000064e-02 1.022499999999999971e-02 9.312000000000000832e-03 8.432999999999999524e-03 7.590000000000000392e-03 6.784000000000000100e-03 6.015999999999999646e-03 5.285999999999999900e-03 2.246999999999999865e-03 1.771999999999999921e-03 1.345999999999999974e-03 9.740000000000000394e-04 6.570000000000000319e-04 4.000000000000000192e-04 2.049999999999999956e-04 7.399999999999999623e-05 7.999999999999999638e-06 7.999999999999999638e-06 7.299999999999999903e-05 2.039999999999999984e-04 3.989999999999999949e-04 6.560000000000000076e-04 9.730000000000000151e-04 1.345999999999999974e-03 1.771000000000000005e-03 2.246000000000000166e-03 2.768000000000000061e-03 3.334999999999999857e-03 3.943999999999999589e-03 4.593999999999999993e-03 5.284999999999999767e-03 6.015000000000000381e-03 6.782999999999999967e-03 7.589000000000000259e-03 8.432000000000000259e-03 9.310000000000000567e-03 1.022400000000000045e-02 1.117100000000000037e-02 1.214999999999999934e-02 1.315900000000000056e-02 1.419400000000000002e-02 1.525299999999999920e-02 1.633099999999999830e-02 1.742300000000000099e-02 1.852699999999999833e-02 1.963300000000000115e-02 2.073600000000000096e-02 2.182900000000000118e-02 2.290400000000000075e-02 2.395500000000000060e-02 2.497299999999999867e-02 2.595099999999999837e-02 2.688000000000000111e-02 2.775700000000000042e-02 2.857300000000000118e-02 2.932600000000000137e-02 3.001099999999999948e-02 3.069699999999999859e-02 3.145300000000000179e-02 3.229900000000000132e-02 3.325899999999999690e-02 3.436399999999999871e-02 3.564599999999999713e-02 3.714599999999999846e-02 3.891200000000000214e-02 4.099699999999999872e-02 4.346499999999999669e-02 4.638699999999999768e-02 4.984100000000000336e-02 5.391399999999999665e-02 5.869100000000000011e-02 6.426300000000000068e-02 7.071600000000000108e-02 7.812299999999999800e-02 8.654399999999999593e-02 9.601600000000000412e-02 1.065460000000000018e-01 1.181080000000000046e-01 1.306370000000000031e-01 1.440289999999999904e-01 1.581390000000000018e-01 1.727899999999999991e-01 1.877759999999999985e-01 2.028729999999999978e-01 2.178489999999999871e-01 2.324759999999999882e-01 2.465420000000000111e-01 2.598619999999999819e-01 2.722829999999999973e-01 2.836929999999999730e-01 2.940220000000000056e-01 3.032389999999999808e-01 3.113520000000000176e-01 3.184000000000000163e-01 3.244460000000000122e-01 3.295730000000000048e-01 3.338749999999999774e-01 3.374480000000000257e-01 3.403900000000000259e-01 3.427950000000000164e-01 3.447470000000000256e-01 3.463249999999999940e-01 3.475949999999999873e-01 3.486150000000000082e-01 3.494329999999999936e-01 3.500909999999999855e-01 3.506219999999999892e-01 3.510510000000000019e-01 3.514010000000000189e-01 3.516889999999999739e-01 3.519280000000000186e-01 3.521299999999999986e-01 3.523020000000000040e-01 3.524519999999999875e-01 3.525860000000000105e-01 3.527069999999999927e-01 
-6.299999999999999990e-05 -8.500000000000000611e-05 -1.079999999999999960e-04 -1.350000000000000017e-04 -1.659999999999999963e-04 -2.020000000000000040e-04 -2.439999999999999949e-04 -2.950000000000000148e-04 -3.570000000000000040e-04 -4.330000000000000081e-04 -5.270000000000000162e-04 -6.430000000000000169e-04 -7.870000000000000476e-04 -9.669999999999999776e-04 -1.188999999999999953e-03 -1.463000000000000108e-03 -1.799999999999999951e-03 -2.213000000000000123e-03 -2.713000000000000134e-03 -3.314999999999999804e-03 -4.028000000000000330e-03 -4.865999999999999666e-03 -5.836000000000000042e-03 -6.943000000000000387e-03 -8.184999999999999568e-03 -9.556000000000000258e-03 -1.104499999999999926e-02 -1.262800000000000034e-02 -1.428199999999999956e-02 -1.597099999999999909e-02 -1.765699999999999908e-02 -1.929900000000000018e-02 -2.085100000000000148e-02 -2.227000000000000160e-02 -2.351900000000000171e-02 -2.456300000000000150e-02 -2.538100000000000078e-02 -2.596199999999999897e-02 -2.630899999999999905e-02 -2.643399999999999916e-02 -2.636300000000000102e-02 -2.612700000000000092e-02 -2.576399999999999871e-02 -2.530200000000000157e-02 -2.478899999999999854e-02 -2.424300000000000066e-02 -2.369200000000000125e-02 -2.316299999999999956e-02 -2.265500000000000153e-02 -2.218900000000000039e-02 -2.176300000000000109e-02 -2.137700000000000017e-02 -2.103800000000000114e-02 -2.072999999999999843e-02 -2.045699999999999949e-02 -2.021600000000000133e-02 -1.999400000000000135e-02 -1.979600000000000110e-02 -1.961900000000000102e-02 -1.945099999999999954e-02 -1.927900000000000100e-02 -1.909100000000000033e-02 -1.887399999999999842e-02 -1.864199999999999885e-02 -1.838000000000000050e-02 -1.810300000000000104e-02 -1.780299999999999938e-02 -1.748399999999999954e-02 -1.714200000000000099e-02 -1.678100000000000078e-02 -1.640300000000000091e-02 -1.600800000000000139e-02 -1.559900000000000002e-02 -1.517199999999999972e-02 -1.473099999999999930e-02 -1.427600000000000049e-02 -1.380800000000000083e-02 -1.332900000000000057e-02 -1.283800000000000045e-02 -1.233599999999999974e-02 -1.182399999999999944e-02 -1.130100000000000028e-02 -1.076700000000000053e-02 -1.022299999999999945e-02 -9.667000000000000245e-03 -9.098999999999999450e-03 -6.055999999999999751e-03 -5.399000000000000153e-03 -4.726000000000000166e-03 -4.035999999999999657e-03 -3.327999999999999795e-03 -2.605999999999999810e-03 -1.871000000000000050e-03 -1.126999999999999964e-03 -3.770000000000000022e-04 3.750000000000000078e-04 1.126000000000000048e-03 1.869999999999999917e-03 2.605000000000000111e-03 3.327000000000000096e-03 4.034000000000000259e-03 4.725000000000000033e-03 5.398000000000000020e-03 6.054999999999999619e-03 6.694000000000000297e-03 7.316999999999999720e-03 7.924999999999999753e-03 8.517999999999999530e-03 9.098000000000000184e-03 9.665999999999999245e-03 1.022200000000000018e-02 1.076599999999999953e-02 1.129999999999999928e-02 1.182300000000000018e-02 1.233500000000000048e-02 1.283699999999999945e-02 1.332799999999999957e-02 1.380800000000000083e-02 1.427499999999999949e-02 1.473000000000000004e-02 1.517199999999999972e-02 1.559900000000000002e-02 1.600700000000000039e-02 1.640199999999999991e-02 1.678100000000000078e-02 1.714200000000000099e-02 1.748399999999999954e-02 1.780299999999999938e-02 1.810200000000000004e-02 1.837899999999999950e-02 1.864100000000000132e-02 1.887399999999999842e-02 1.908999999999999933e-02 1.927900000000000100e-02 1.944999999999999854e-02 1.961900000000000102e-02 1.979600000000000110e-02 1.999400000000000135e-02 2.021600000000000133e-02 2.045699999999999949e-02 2.072900000000000090e-02 2.103800000000000114e-02 2.137700000000000017e-02 2.176300000000000109e-02 2.218900000000000039e-02 2.265500000000000153e-02 2.316299999999999956e-02 2.369200000000000125e-02 2.424199999999999966e-02 2.478899999999999854e-02 2.530200000000000157e-02 2.576399999999999871e-02 2.612700000000000092e-02 2.636300000000000102e-02 2.643399999999999916e-02 2.630899999999999905e-02 2.596199999999999897e-02 2.538100000000000078e-02 2.456300000000000150e-02 2.351900000000000171e-02 2.227000000000000160e-02 2.085100000000000148e-02 1.929900000000000018e-02 1.765699999999999908e-02 1.597099999999999909e-02 1.428199999999999956e-02 1.262800000000000034e-02 1.104499999999999926e-02 9.556000000000000258e-03 8.184999999999999568e-03 6.943000000000000387e-03 5.836000000000000042e-03 4.865999999999999666e-03 4.028000000000000330e-03 3.314000000000000105e-03 2.713000000000000134e-03 2.213000000000000123e-03 1.799999999999999951e-03 1.463000000000000108e-03 1.188000000000000037e-03 9.659999999999999533e-04 7.870000000000000476e-04 6.430000000000000169e-04 5.270000000000000162e-04 4.330000000000000081e-04 3.570000000000000040e-04 2.950000000000000148e-04 2.439999999999999949e-04 2.020000000000000040e-04 1.659999999999999963e-04 1.350000000000000017e-04 1.079999999999999960e-04 8.500000000000000611e-05 6.299999999999999990e-05 -6.299999999999999990e-05 -8.500000000000000611e-05 -1.079999999999999960e-04 -1.350000000000000017e-04 -1.659999999999999963e-04 -2.020000000000000040e-04 -2.439999999999999949e-04 -2.950000000000000148e-04 -3.570000000000000040e-04 -4.330000000000000081e-04 -5.270000000000000162e-04 -6.430000000000000169e-04 -7.870000000000000476e-04 -9.669999999999999776e-04 -1.188999999999999953e-03 -1.463000000000000108e-03 -1.799999999999999951e-03 -2.213000000000000123e-03 -2.713000000000000134e-03 -3.314999999999999804e-03 -4.028000000000000330e-03 -4.865999999999999666e-03 -5.836000000000000042e-03 -6.943000000000000387e-03 -8.184999999999999568e-03 -9.556000000000000258e-03 -1.104499999999999926e-02 -1.262800000000000034e-02 -1.428199999999999956e-02 -1.597099999999999909e-02 -1.765699999999999908e-02 -1.929900000000000018e-02 -2.085100000000000148e-02 -2.227000000000000160e-02 -2.351900000000000171e-02 -2.456300000000000150e-02 -2.538100000000000078e-02 -2.596199999999999897e-02 -2.630899999999999905e-02 -2.643399999999999916e-02 -2.636300000000000102e-02 -2.612700000000000092e-02 -2.576399999999999871e-02 -2.530200000000000157e-02 -2.478899999999999854e-02 -2.424300000000000066e-02 -2.369200000000000125e-02 -2.316299999999999956e-02 -2.265500000000000153e-02 -2.218900000000000039e-02 -2.176300000000000109e-02 -2.137700000000000017e-02 -2.103800000000000114e-02 -2.072999999999999843e-02 -2.045699999999999949e-02 -2.021600000000000133e-02 -1.999400000000000135e-02 -1.979600000000000110e-02 -1.961900000000000102e-02 -1.945099999999999954e-02 -1.927900000000000100e-02 -1.909100000000000033e-02 -1.887399999999999842e-02 -1.864199999999999885e-02 -1.838000000000000050e-02 -1.810300000000000104e-02 -1.780299999999999938e-02 -1.748399999999999954e-02 -1.714200000000000099e-02 -1.678100000000000078e-02 -1.640300000000000091e-02 -1.600800000000000139e-02 -1.559900000000000002e-02 -1.517199999999999972e-02 -1.473099999999999930e-02 -1.427600000000000049e-02 -1.380800000000000083e-02 -1.332900000000000057e-02 -1.283800000000000045e-02 -1.233599999999999974e-02 -1.182399999999999944e-02 -1.130100000000000028e-02 -1.076700000000000053e-02 -1.022299999999999945e-02 -9.667000000000000245e-03 -9.098999999999999450e-03 -6.055999999999999751e-03 -5.399000000000000153e-03 -4.726000000000000166e-03 -4.035999999999999657e-03 -3.327999999999999795e-03 -2.605999999999999810e-03 -1.871000000000000050e-03 -1.126999999999999964e-03 -3.770000000000000022e-04 3.750000000000000078e-04 1.126000000000000048e-03 1.869999999999999917e-03 2.605000000000000111e-03 3.327000000000000096e-03 4.034000000000000259e-03 4.725000000000000033e-03 5.398000000000000020e-03 6.054999999999999619e-03 6.694000000000000297e-03 7.316999999999999720e-03 7.924999999999999753e-03 8.517999999999999530e-03 9.098000000000000184e-03 9.665999999999999245e-03 1.022200000000000018e-02 1.076599999999999953e-02 1.129999999999999928e-02 1.182300000000000018e-02 1.233500000000000048e-02 1.283699999999999945e-02 1.332799999999999957e-02 1.380800000000000083e-02 1.427499999999999949e-02 1.473000000000000004e-02 1.517199999999999972e-02 1.559900000000000002e-02 1.600700000000000039e-02 1.640199999999999991e-02 1.678100000000000078e-02 1.714200000000000099e-02 1.748399999999999954e-02 1.780299999999999938e-02 1.810200000000000004e-02 1.837899999999999950e-02 1.864100000000000132e-02 1.887399999999999842e-02 1.908999999999999933e-02 1.927900000000000100e-02 1.944999999999999854e-02 1.961900000000000102e-02 1.979600000000000110e-02 1.999400000000000135e-02 2.021600000000000133e-02 2.045699999999999949e-02 2.072900000000000090e-02 2.103800000000000114e-02 2.137700000000000017e-02 2.176300000000000109e-02 2.218900000000000039e-02 2.265500000000000153e-02 2.316299999999999956e-02 2.369200000000000125e-02 2.424199999999999966e-02 2.478899999999999854e-02 2.530200000000000157e-02 2.576399999999999871e-02 2.612700000000000092e-02 2.636300000000000102e-02 2.643399999999999916e-02 2.630899999999999905e-02 2.596199999999999897e-02 2.538100000000000078e-02 2.456300000000000150e-02 2.351900000000000171e-02 2.227000000000000160e-02 2.085100000000000148e-02 1.929900000000000018e-02 1.765699999999999908e-02 1.597099999999999909e-02 1.428199999999999956e-02 1.262800000000000034e-02 1.104499999999999926e-02 9.556000000000000258e-03 8.184999999999999568e-03 6.943000000000000387e-03 5.836000000000000042e-03 4.865999999999999666e-03 4.028000000000000330e-03 3.314000000000000105e-03 2.713000000000000134e-03 2.213000000000000123e-03 1.799999999999999951e-03 1.463000000000000108e-03 1.188000000000000037e-03 9.659999999999999533e-04 7.870000000000000476e-04 6.430000000000000169e-04 5.270000000000000162e-04 4.330000000000000081e-04 3.570000000000000040e-04 2.950000000000000148e-04 2.439999999999999949e-04 2.020000000000000040e-04 1.659999999999999963e-04 1.350000000000000017e-04 1.079999999999999960e-04 8.500000000000000611e-05 6.299999999999999990e-05 
0.000000000000000000e+00 0.000000000000000000e+00 0.000000000000000000e+00 0.000000000000000000e+00 0.000000000000000000e+00 0.000000000000000000e+00 0.000000000000000000e+00 0.000000000000000000e+00 0.000000000000000000e+00 0.000000000000000000e+00 0.000000000000000000e+00 0.000000000000000000e+00 0.000000000000000000e+00 0.000000000000000000e+00 0.000000000000000000e+00 0.000000000000000000e+00 0.000000000000000000e+00 0.000000000000000000e+00 0.000000000000000000e+00 0.000000000000000000e+00 0.000000000000000000e+00 0.000000000000000000e+00 0.000000000000000000e+00 0.000000000000000000e+00 0.000000000000000000e+00 0.000000000000000000e+00 0.000000000000000000e+00 0.000000000000000000e+00 0.000000000000000000e+00 0.000000000000000000e+00 0.000000000000000000e+00 0.000000000000000000e+00 0.000000000000000000e+00 0.000000000000000000e+00 0.000000000000000000e+00 0.000000000000000000e+00 0.000000000000000000e+00 0.000000000000000000e+00 0.000000000000000000e+00 0.000000000000000000e+00 0.000000000000000000e+00 0.000000000000000000e+00 0.000000000000000000e+00 0.000000000000000000e+00 0.000000000000000000e+00 0.000000000000000000e+00 0.000000000000000000e+00 0.000000000000000000e+00 0.000000000000000000e+00 0.000000000000000000e+00 0.000000000000000000e+00 0.000000000000000000e+00 0.000000000000000000e+00 0.000000000000000000e+00 0.000000000000000000e+00 0.000000000000000000e+00 0.000000000000000000e+00 0.000000000000000000e+00 0.000000000000000000e+00 0.000000000000000000e+00 0.000000000000000000e+00 0.000000000000000000e+00 0.000000000000000000e+00 0.000000000000000000e+00 0.000000000000000000e+00 0.000000000000000000e+00 0.000000000000000000e+00 0.000000000000000000e+00 0.000000000000000000e+00 0.000000000000000000e+00 0.000000000000000000e+00 0.000000000000000000e+00 0.000000000000000000e+00 0.000000000000000000e+00 0.000000000000000000e+00 0.000000000000000000e+00 0.000000000000000000e+00 0.000000000000000000e+00 0.000000000000000000e+00 0.000000000000000000e+00 0.000000000000000000e+00 0.000000000000000000e+00 0.000000000000000000e+00 0.000000000000000000e+00 0.000000000000000000e+00 0.000000000000000000e+00 0.000000000000000000e+00 0.000000000000000000e+00 0.000000000000000000e+00 0.000000000000000000e+00 0.000000000000000000e+00 0.000000000000000000e+00 0.000000000000000000e+00 0.000000000000000000e+00 0.000000000000000000e+00 0.000000000000000000e+00 0.000000000000000000e+00 0.000000000000000000e+00 0.000000000000000000e+00 0.000000000000000000e+00 0.000000000000000000e+00 0.000000000000000000e+00 0.000000000000000000e+00 0.000000000000000000e+00 0.000000000000000000e+00 0.000000000000000000e+00 0.000000000000000000e+00 0.000000000000000000e+00 0.000000000000000000e+00 0.000000000000000000e+00 0.000000000000000000e+00 0.000000000000000000e+00 0.000000000000000000e+00 0.000000000000000000e+00 0.000000000000000000e+00 0.000000000000000000e+00 0.000000000000000000e+00 0.000000000000000000e+00 0.000000000000000000e+00 0.000000000000000000e+00 0.000000000000000000e+00 0.000000000000000000e+00 0.000000000000000000e+00 0.000000000000000000e+00 0.000000000000000000e+00 0.000000000000000000e+00 0.000000000000000000e+00 0.000000000000000000e+00 0.000000000000000000e+00 0.000000000000000000e+00 0.000000000000000000e+00 0.000000000000000000e+00 0.000000000000000000e+00 0.000000000000000000e+00 0.000000000000000000e+00 0.000000000000000000e+00 0.000000000000000000e+00 0.000000000000000000e+00 0.000000000000000000e+00 0.000000000000000000e+00 0.000000000000000000e+00 0.000000000000000000e+00 0.000000000000000000e+00 0.000000000000000000e+00 0.000000000000000000e+00 0.000000000000000000e+00 0.000000000000000000e+00 0.000000000000000000e+00 0.000000000000000000e+00 0.000000000000000000e+00 0.000000000000000000e+00 0.000000000000000000e+00 0.000000000000000000e+00 0.000000000000000000e+00 0.000000000000000000e+00 0.000000000000000000e+00 0.000000000000000000e+00 0.000000000000000000e+00 0.000000000000000000e+00 0.000000000000000000e+00 0.000000000000000000e+00 0.000000000000000000e+00 0.000000000000000000e+00 0.000000000000000000e+00 0.000000000000000000e+00 0.000000000000000000e+00 0.000000000000000000e+00 0.000000000000000000e+00 0.000000000000000000e+00 0.000000000000000000e+00 0.000000000000000000e+00 0.000000000000000000e+00 0.000000000000000000e+00 0.000000000000000000e+00 0.000000000000000000e+00 0.000000000000000000e+00 0.000000000000000000e+00 0.000000000000000000e+00 0.000000000000000000e+00 0.000000000000000000e+00 0.000000000000000000e+00 0.000000000000000000e+00 0.000000000000000000e+00 0.000000000000000000e+00 0.000000000000000000e+00 0.000000000000000000e+00 0.000000000000000000e+00 0.000000000000000000e+00 0.000000000000000000e+00 0.000000000000000000e+00 0.000000000000000000e+00 0.000000000000000000e+00 0.000000000000000000e+00 0.000000000000000000e+00 1.000000000000000021e-03 1.000000000000000021e-03 1.000000000000000021e-03 1.000000000000000021e-03 1.000000000000000021e-03 1.000000000000000021e-03 1.000000000000000021e-03 1.000000000000000021e-03 1.000000000000000021e-03 1.000000000000000021e-03 1.000000000000000021e-03 1.000000000000000021e-03 1.000000000000000021e-03 1.000000000000000021e-03 1.000000000000000021e-03 1.000000000000000021e-03 1.000000000000000021e-03 1.000000000000000021e-03 1.000000000000000021e-03 1.000000000000000021e-03 1.000000000000000021e-03 1.000000000000000021e-03 1.000000000000000021e-03 1.000000000000000021e-03 1.000000000000000021e-03 1.000000000000000021e-03 1.000000000000000021e-03 1.000000000000000021e-03 1.000000000000000021e-03 1.000000000000000021e-03 1.000000000000000021e-03 1.000000000000000021e-03 1.000000000000000021e-03 1.000000000000000021e-03 1.000000000000000021e-03 1.000000000000000021e-03 1.000000000000000021e-03 1.000000000000000021e-03 1.000000000000000021e-03 1.000000000000000021e-03 1.000000000000000021e-03 1.000000000000000021e-03 1.000000000000000021e-03 1.000000000000000021e-03 1.000000000000000021e-03 1.000000000000000021e-03 1.000000000000000021e-03 1.000000000000000021e-03 1.000000000000000021e-03 1.000000000000000021e-03 1.000000000000000021e-03 1.000000000000000021e-03 1.000000000000000021e-03 1.000000000000000021e-03 1.000000000000000021e-03 1.000000000000000021e-03 1.000000000000000021e-03 1.000000000000000021e-03 1.000000000000000021e-03 1.000000000000000021e-03 1.000000000000000021e-03 1.000000000000000021e-03 1.000000000000000021e-03 1.000000000000000021e-03 1.000000000000000021e-03 1.000000000000000021e-03 1.000000000000000021e-03 1.000000000000000021e-03 1.000000000000000021e-03 1.000000000000000021e-03 1.000000000000000021e-03 1.000000000000000021e-03 1.000000000000000021e-03 1.000000000000000021e-03 1.000000000000000021e-03 1.000000000000000021e-03 1.000000000000000021e-03 1.000000000000000021e-03 1.000000000000000021e-03 1.000000000000000021e-03 1.000000000000000021e-03 1.000000000000000021e-03 1.000000000000000021e-03 1.000000000000000021e-03 1.000000000000000021e-03 1.000000000000000021e-03 1.000000000000000021e-03 1.000000000000000021e-03 1.000000000000000021e-03 1.000000000000000021e-03 1.000000000000000021e-03 1.000000000000000021e-03 1.000000000000000021e-03 1.000000000000000021e-03 1.000000000000000021e-03 1.000000000000000021e-03 1.000000000000000021e-03 1.000000000000000021e-03 1.000000000000000021e-03 1.000000000000000021e-03 1.000000000000000021e-03 1.000000000000000021e-03 1.000000000000000021e-03 1.000000000000000021e-03 1.000000000000000021e-03 1.000000000000000021e-03 1.000000000000000021e-03 1.000000000000000021e-03 1.000000000000000021e-03 1.000000000000000021e-03 1.000000000000000021e-03 1.000000000000000021e-03 1.000000000000000021e-03 1.000000000000000021e-03 1.000000000000000021e-03 1.000000000000000021e-03 1.000000000000000021e-03 1.000000000000000021e-03 1.000000000000000021e-03 1.000000000000000021e-03 1.000000000000000021e-03 1.000000000000000021e-03 1.000000000000000021e-03 1.000000000000000021e-03 1.000000000000000021e-03 1.000000000000000021e-03 1.000000000000000021e-03 1.000000000000000021e-03 1.000000000000000021e-03 1.000000000000000021e-03 1.000000000000000021e-03 1.000000000000000021e-03 1.000000000000000021e-03 1.000000000000000021e-03 1.000000000000000021e-03 1.000000000000000021e-03 1.000000000000000021e-03 1.000000000000000021e-03 1.000000000000000021e-03 1.000000000000000021e-03 1.000000000000000021e-03 1.000000000000000021e-03 1.000000000000000021e-03 1.000000000000000021e-03 1.000000000000000021e-03 1.000000000000000021e-03 1.000000000000000021e-03 1.000000000000000021e-03 1.000000000000000021e-03 1.000000000000000021e-03 1.000000000000000021e-03 1.000000000000000021e-03 1.000000000000000021e-03 1.000000000000000021e-03 1.000000000000000021e-03 1.000000000000000021e-03 1.000000000000000021e-03 1.000000000000000021e-03 1.000000000000000021e-03 1.000000000000000021e-03 1.000000000000000021e-03 1.000000000000000021e-03 1.000000000000000021e-03 1.000000000000000021e-03 1.000000000000000021e-03 1.000000000000000021e-03 1.000000000000000021e-03 1.000000000000000021e-03 1.000000000000000021e-03 1.000000000000000021e-03 1.000000000000000021e-03 1.000000000000000021e-03 1.000000000000000021e-03 1.000000000000000021e-03 1.000000000000000021e-03 1.000000000000000021e-03 1.000000000000000021e-03 1.000000000000000021e-03 1.000000000000000021e-03 1.000000000000000021e-03 1.000000000000000021e-03 1.000000000000000021e-03 1.000000000000000021e-03 1.000000000000000021e-03 1.000000000000000021e-03 1.000000000000000021e-03 1.000000000000000021e-03 1.000000000000000021e-03 1.000000000000000021e-03 1.000000000000000021e-03 1.000000000000000021e-03 1.000000000000000021e-03 1.000000000000000021e-03 1.000000000000000021e-03 