FILETYPE = SOLUTION
VARIABLES = Tw Hw Hi HTC Beta TauX TauY TauZ
ZONE T="2_Block-2_WALL_4_Isotermal_wall"
I=     2 J=    60 K=     1
ZONETYPE = Ordered, DATAPACKING = BLOCK, VARLOCATION=([1-8]=CELLCENTERED)
 STRANDID=      200004 SOLUTIONTIME=  15000.00000000
   302.0000       302.0000       302.0000       302.0000       302.0000       302.0000       302.0000       302.0000       302.0000       302.0000       302.0000       302.0000       302.0000       302.0000       302.0000       302.0000       302.0000       302.0000       302.0000       302.0000       302.0000       302.0000       302.0000       302.0000       302.0000       302.0000       302.0000       302.0000       302.0000       302.0000       302.0000       302.0000       302.0000       302.0000       302.0000       302.0000       302.0000       302.0000       302.0000       302.0000       302.0000       302.0000       302.0000       302.0000       302.0000       302.0000       302.0000       302.0000       302.0000       302.0000       302.0000       302.0000       302.0000       302.0000       302.0000       302.0000       302.0000       302.0000       302.0000    
  0.0000000E+00  0.0000000E+00  0.0000000E+00  0.0000000E+00  0.0000000E+00  0.0000000E+00  0.0000000E+00  0.0000000E+00  0.0000000E+00  0.0000000E+00  0.0000000E+00  0.0000000E+00  0.0000000E+00  0.0000000E+00  0.0000000E+00  0.0000000E+00  0.0000000E+00  0.0000000E+00  0.0000000E+00  0.0000000E+00  0.0000000E+00  0.0000000E+00  0.0000000E+00  0.0000000E+00  0.0000000E+00  0.0000000E+00  0.0000000E+00  0.0000000E+00  0.0000000E+00  0.0000000E+00  0.0000000E+00  0.0000000E+00  0.0000000E+00  0.0000000E+00  0.0000000E+00  0.0000000E+00  0.0000000E+00  0.0000000E+00  0.0000000E+00  0.0000000E+00  0.0000000E+00  0.0000000E+00  0.0000000E+00  0.0000000E+00  0.0000000E+00  0.0000000E+00  0.0000000E+00  0.0000000E+00  0.0000000E+00  0.0000000E+00  0.0000000E+00  0.0000000E+00  0.0000000E+00  0.0000000E+00  0.0000000E+00  0.0000000E+00  0.0000000E+00  0.0000000E+00  0.0000000E+00
  0.0000000E+00  0.0000000E+00  0.0000000E+00  0.0000000E+00  0.0000000E+00  0.0000000E+00  0.0000000E+00  0.0000000E+00  0.0000000E+00  0.0000000E+00  0.0000000E+00  0.0000000E+00  0.0000000E+00  0.0000000E+00  0.0000000E+00  0.0000000E+00  0.0000000E+00  0.0000000E+00  0.0000000E+00  0.0000000E+00  0.0000000E+00  0.0000000E+00  0.0000000E+00  0.0000000E+00  0.0000000E+00  0.0000000E+00  0.0000000E+00  0.0000000E+00  0.0000000E+00  0.0000000E+00  0.0000000E+00  0.0000000E+00  0.0000000E+00  0.0000000E+00  0.0000000E+00  0.0000000E+00  0.0000000E+00  0.0000000E+00  0.0000000E+00  0.0000000E+00  0.0000000E+00  0.0000000E+00  0.0000000E+00  0.0000000E+00  0.0000000E+00  0.0000000E+00  0.0000000E+00  0.0000000E+00  0.0000000E+00  0.0000000E+00  0.0000000E+00  0.0000000E+00  0.0000000E+00  0.0000000E+00  0.0000000E+00  0.0000000E+00  0.0000000E+00  0.0000000E+00  0.0000000E+00
   183.5379       178.1603       173.7519       170.1708       167.3337       165.3360       164.1531       164.1400       165.7040       169.2861       175.3645       183.5766       193.2370       203.7466       214.2773       224.6733       234.3332       241.8759       245.5821       240.8249       231.0738       243.7113       296.0717       361.7298       430.9312       496.0760       553.7350       603.4752       645.9059       682.0684       713.1013       739.8892       763.0634       783.1729       800.6632       815.8203       828.9398       840.1390       849.6302       857.5653       863.9332       868.9306       872.5266       874.8541       875.9994       875.8937       874.7506       872.4415       869.1210       864.7274       859.4276       853.1808       845.9650       837.9941       829.0912       819.2993       808.7303       797.3459       785.1837    
  0.0000000E+00  0.0000000E+00  0.0000000E+00  0.0000000E+00  0.0000000E+00  0.0000000E+00  0.0000000E+00  0.0000000E+00  0.0000000E+00  0.0000000E+00  0.0000000E+00  0.0000000E+00  0.0000000E+00  0.0000000E+00  0.0000000E+00  0.0000000E+00  0.0000000E+00  0.0000000E+00  0.0000000E+00  0.0000000E+00  0.0000000E+00  0.0000000E+00  0.0000000E+00  0.0000000E+00  0.0000000E+00  0.0000000E+00  0.0000000E+00  0.0000000E+00  0.0000000E+00  0.0000000E+00  0.0000000E+00  0.0000000E+00  0.0000000E+00  0.0000000E+00  0.0000000E+00  0.0000000E+00  0.0000000E+00  0.0000000E+00  0.0000000E+00  0.0000000E+00  0.0000000E+00  0.0000000E+00  0.0000000E+00  0.0000000E+00  0.0000000E+00  0.0000000E+00  0.0000000E+00  0.0000000E+00  0.0000000E+00  0.0000000E+00  0.0000000E+00  0.0000000E+00  0.0000000E+00  0.0000000E+00  0.0000000E+00  0.0000000E+00  0.0000000E+00  0.0000000E+00  0.0000000E+00
   1.679776       1.662091       1.694883       1.778754       1.908847       2.082767       2.298055       2.557622       2.861660       3.215913       3.618489       4.065175       4.557382       5.096045       5.696848       6.368749       7.132653       8.008732       9.043331       10.27043       11.60568       12.67859       12.30136       7.660973      -2.319792      -16.11020      -32.12394      -48.54232      -64.17301      -78.44875      -91.23619      -102.5659      -112.5178      -121.1859      -128.7066      -135.0918      -140.5158      -144.9406      -148.4882      -151.1760      -153.0539      -154.1651      -154.5625      -154.2752      -153.3788      -151.8541      -149.8148      -147.2608      -144.2146      -140.7843      -136.9717      -132.7686      -128.3496      -123.5932      -118.6533      -113.5283      -108.2460      -102.8379      -97.36768    
  -1.636004      -1.535371      -1.484585      -1.476754      -1.501197      -1.550456      -1.617823      -1.700911      -1.795365      -1.900475      -2.010566      -2.119251      -2.223662      -2.320580      -2.413066      -2.499626      -2.582178      -2.659904      -2.737857      -2.812403      -2.847175      -2.753574      -2.329426      -1.239609      0.3119967       1.729669       2.582555       2.598550       1.716431      0.0000000E+00  -2.440293      -5.490740      -9.045428      -13.01140      -17.31047      -21.85933      -26.60784      -31.47892      -36.42843      -41.39689      -46.33710      -51.20243      -55.95469      -60.55093      -64.96776      -69.15009      -73.09842      -76.76961      -80.13132      -83.19737      -85.93473      -88.29520      -90.35792      -92.00612      -93.31390      -94.25288      -94.81536      -94.99739      -94.83045    
 -1.7577811E-08 -1.6080556E-08 -1.5126119E-08 -1.3323647E-08 -1.2689276E-08 -1.6229603E-08 -2.3092126E-08 -2.6811911E-08 -2.6372941E-08 -1.5504838E-08 -6.5694348E-09 -2.3602904E-09 -1.6634787E-09 -4.1498907E-09 -2.0827504E-09  1.7624815E-09 -1.7033329E-09  2.1331625E-09  1.0395380E-08  5.1518074E-09  4.4944533E-09 -3.4170633E-09  3.5337624E-10  7.4118134E-10 -1.1480166E-08 -3.1069001E-09 -1.4262707E-08 -1.6390949E-08 -1.8285524E-08 -9.8148449E-09 -1.8505043E-08 -1.0689312E-08 -4.3210884E-09 -1.1532695E-08 -2.9920155E-08 -2.9795701E-09 -1.0308939E-08  5.9587002E-09 -8.2972083E-09  2.2131921E-08  6.6645311E-09 -4.0480104E-09 -7.2482664E-09 -9.4812700E-09 -1.0314096E-08 -3.8363357E-09 -1.2535928E-08  8.8509298E-09 -3.3473446E-09 -9.3083203E-09 -1.3045371E-08 -8.1548963E-09 -8.1313249E-09 -1.4628982E-08 -1.3014276E-08 -1.4883447E-08 -1.4296351E-08 -1.6792816E-08 -2.2319300E-08
