# EXPORT_MODE=STALL
TITLE="FE Surface Data ASCII"
VARIABLES="X", "Y", "Z", "T", "Hw", "Hi", "HTC", "Beta", "MImp2", "Vd2", "TauX", "TauY", "TauZ", "Stall", "StallD", "StallVX", "StallVY", "StallVZ"
ZONE T="WALL_2000"
NODES=720
ELEMENTS=720
DATAPACKING=BLOCK
ZONETYPE=FETRIANGLE
VARLOCATION=([4-18]=CELLCENTERED)
0.058917 0.058915 0.062592 0.06259 0.066206 0.066204 0.069761 0.069759 0.073235 0.073234 0.076708 0.076706 0.080167 0.080165 0.083528 0.083527 0.086793 0.086791 0.089984 0.089982 0.093166 0.093163 0.096238 0.096236 0.099211 0.099209 0.10216 0.102157 0.105062 0.105059 0.107888 0.107886 0.110642 0.11064 0.113325 0.113323 0.115895 0.115893 0.118362 0.11836 0.120754 0.120753 0.123072 0.12307 0.125312 0.12531 0.127449 0.127448 0.129487 0.129486 0.131451 0.13145 0.133344 0.133342 0.135142 0.13514 0.136835 0.136834 0.138423 0.138422 0.139905 0.139904 0.141295 0.141293 0.142583 0.142582 0.143771 0.14377 0.144867 0.144866 0.145858 0.145857 0.146738 0.146737 0.147516 0.147515 0.148182 0.148181 0.148728 0.148728 0.149176 0.149176 0.149528 0.149527 0.149776 0.149776 0.149916 0.149916 0.149951 0.149951 0.149879 0.149879 0.149701 0.149701 0.149422 0.149422 0.149039 0.149039 0.148544 0.148544 0.147937 0.147937 0.147223 0.147224 0.146408 0.146409 0.145492 0.145493 0.144474 0.144475 0.143348 0.143349 0.142127 0.142128 0.140808 0.140809 0.139381 0.139382 0.137848 0.137849 0.136217 0.136218 0.134527 0.134528 0.132748 0.132749 0.130834 0.130835 0.128822 0.128822 0.126752 0.126753 0.12459 0.124591 0.122313 0.122314 0.119958 0.11996 0.117531 0.117533 0.114992 0.114993 0.11235 0.112352 0.109667 0.109669 0.106923 0.106925 0.104128 0.104129 0.101247 0.101248 0.098252 0.098253 0.095174 0.095175 0.091996 0.091997 0.088755 0.088757 0.08546 0.085462 0.082105 0.082107 0.078732 0.078734 0.075331 0.075334 0.071831 0.071833 0.068232 0.068234 0.064603 0.064606 0.060981 0.060983 0.057305 0.057307 0.053563 0.053565 0.049831 0.049833 0.055224 0.055222 0.051463 0.051461 0.047628 0.047626 0.04378 0.043778 0.039922 0.03992 0.036078 0.036076 0.032219 0.032217 0.028284 0.028282 0.024303 0.024301 0.020331 0.020329 0.016368 0.016367 0.012411 0.01241 0.008424 0.008423 0.004384 0.004383 0.000359 0.000358 -0.003655 -0.003655 -0.007686 -0.007687 -0.011716 -0.011717 -0.01577 -0.015769 -0.019812 -0.019811 -0.023779 -0.023778 -0.027768 -0.027767 -0.031758 -0.031756 -0.035601 -0.035598 -0.039405 -0.039402 -0.043228 -0.043223 -0.047049 -0.047043 -0.050907 -0.0509 -0.054728 -0.05472 -0.058479 -0.05847 -0.06219 -0.062179 -0.065877 -0.065865 -0.069467 -0.069454 -0.072958 -0.072943 -0.076439 -0.076424 -0.079889 -0.079873 -0.083306 -0.083289 -0.086715 -0.086699 -0.090333 -0.090318 -0.094225 -0.094211 -0.098428 -0.098415 -0.102575 -0.102561 -0.106334 -0.106318 -0.109728 -0.109708 -0.112774 -0.11275 -0.115495 -0.115463 -0.117926 -0.117884 -0.120085 -0.120033 -0.121999 -0.121936 -0.123694 -0.123619 -0.125186 -0.1251 -0.126485 -0.12639 -0.127608 -0.127507 -0.128585 -0.128481 -0.129465 -0.129362 -0.130302 -0.130203 -0.131138 -0.131043 -0.131988 -0.131895 -0.132848 -0.132756 -0.133709 -0.133615 -0.134561 -0.134464 -0.135401 -0.135301 -0.136247 -0.136143 -0.137114 -0.137006 -0.138005 -0.137892 -0.138873 -0.138755 -0.139803 -0.139679 -0.14065 -0.140518 -0.141436 -0.141297 -0.142149 -0.142004 -0.142782 -0.142629 -0.143322 -0.14316 -0.143852 -0.143681 -0.144387 -0.144213 -0.144935 -0.144764 -0.145467 -0.145299 -0.145956 -0.145791 -0.146377 -0.146207 -0.14669 -0.14651 -0.146874 -0.146676 -0.146953 -0.146727 -0.146905 -0.146642 -0.146748 -0.146451 -0.146507 -0.146176 -0.146244 -0.14588 -0.146029 -0.145638 -0.14591 -0.145496 -0.145918 -0.145489 -0.146062 -0.145628 -0.146343 -0.14591 -0.14674 -0.146315 -0.147238 -0.146822 -0.147827 -0.147423 -0.148505 -0.148114 -0.14927 -0.148893 -0.150126 -0.149764 -0.151097 -0.150751 -0.152211 -0.151881 -0.153287 -0.152973 -0.154251 -0.153952 -0.15513 -0.154843 -0.15592 -0.155641 -0.156623 -0.156348 -0.157232 -0.156959 -0.157712 -0.157433 -0.158098 -0.157816 -0.15838 -0.158082 -0.158593 -0.158286 -0.158668 -0.158341 -0.158659 -0.158317 -0.15854 -0.158169 -0.158296 -0.157906 -0.157957 -0.157548 -0.157514 -0.157086 -0.156989 -0.156547 -0.156424 -0.155975 -0.155873 -0.155427 -0.155436 -0.155002 -0.155083 -0.154668 -0.154799 -0.154405 -0.154534 -0.15416 -0.154252 -0.1539 -0.153969 -0.153641 -0.153737 -0.153435 -0.153615 -0.153341 -0.153619 -0.153375 -0.153748 -0.153535 -0.153975 -0.153794 -0.154259 -0.154111 -0.154549 -0.154433 -0.154798 -0.154715 -0.15497 -0.15492 -0.155031 -0.155015 -0.154966 -0.154984 -0.154777 -0.154827 -0.154481 -0.154563 -0.154121 -0.154234 -0.153738 -0.153881 -0.153373 -0.153545 -0.153058 -0.153258 -0.152817 -0.153044 -0.15267 -0.152922 -0.15263 -0.152906 -0.152702 -0.152999 -0.152882 -0.153199 -0.15316 -0.153496 -0.153525 -0.153877 -0.153953 -0.15432 -0.15441 -0.154786 -0.154839 -0.15522 -0.155181 -0.155563 -0.15539 -0.15577 -0.155454 -0.155831 -0.155398 -0.155772 -0.155263 -0.155638 -0.155135 -0.155515 -0.155059 -0.155445 -0.155057 -0.155451 -0.155174 -0.15558 -0.155426 -0.155836 -0.155821 -0.156232 -0.156339 -0.156749 -0.156963 -0.157366 -0.157659 -0.158047 -0.158296 -0.158667 -0.158806 -0.159146 -0.159159 -0.159486 -0.15941 -0.159712 -0.159492 -0.159796 -0.159494 -0.159759 -0.15936 -0.15964 -0.159098 -0.159362 -0.15876 -0.159008 -0.158315 -0.15856 -0.157804 -0.158035 -0.157182 -0.157414 -0.156473 -0.156704 -0.155676 -0.155908 -0.154793 -0.155026 -0.153816 -0.154049 -0.15273 -0.152963 -0.151528 -0.151759 -0.150187 -0.150418 -0.148977 -0.149207 -0.147866 -0.148096 -0.146859 -0.147089 -0.145944 -0.146174 -0.145118 -0.145349 -0.14429 -0.144522 -0.143565 -0.143796 -0.142941 -0.143172 -0.14244 -0.142669 -0.14207 -0.142298 -0.14178 -0.142003 -0.141576 -0.141792 -0.141426 -0.141632 -0.1413 -0.141492 -0.141131 -0.141308 -0.140879 -0.141041 -0.140509 -0.140661 -0.140022 -0.140164 -0.13944 -0.139573 -0.138761 -0.138888 -0.138015 -0.138134 -0.137163 -0.137274 -0.136216 -0.136319 -0.135278 -0.135373 -0.134451 -0.134539 -0.133617 -0.133699 -0.132844 -0.132922 -0.132199 -0.132276 -0.131603 -0.13168 -0.131043 -0.131123 -0.130516 -0.130599 -0.129988 -0.130073 -0.129406 -0.129493 -0.128727 -0.128814 -0.127933 -0.128018 -0.127017 -0.127098 -0.125974 -0.126049 -0.124795 -0.124862 -0.123465 -0.123524 -0.121967 -0.122016 -0.120281 -0.120321 -0.118383 -0.118413 -0.116247 -0.116268 -0.113849 -0.113864 -0.111164 -0.111174 -0.108166 -0.108173 -0.104831 -0.104836 -0.101135 -0.10114 -0.097052 -0.097056 -0.092968 -0.092972 -0.089185 -0.089191 -0.085669 -0.085677 -0.082196 -0.082205 -0.078722 -0.078732 -0.075229 -0.075238 -0.071666 -0.071675 -0.068024 -0.068032 -0.064333 -0.06434 -0.060638 -0.060644 -0.056901 -0.056907 -0.053115 -0.05312 -0.049305 -0.049309 -0.045441 -0.045444 -0.041574 -0.041576 -0.037686 -0.037687 -0.03372 -0.033721 -0.029754 -0.029755 -0.025785 -0.025786 -0.0218 -0.0218 -0.017802 -0.017801 -0.013751 -0.01375 -0.009689 -0.009687 -0.005706 -0.005704 -0.00169 -0.001689 0.002385 0.002387 0.006444 0.006446 0.010492 0.010493 0.014469 0.014471 0.018428 0.01843 0.022404 0.022407 0.026382 0.026384 0.030379 0.030382 0.034362 0.034364 0.038311 0.038313 0.042236 0.042239 0.046082 0.046084 
0.137869 0.13787 0.136243 0.136245 0.134528 0.13453 0.132722 0.132724 0.130839 0.130841 0.128833 0.128835 0.126713 0.126714 0.124527 0.124529 0.122279 0.122281 0.119951 0.119952 0.117497 0.117499 0.114995 0.114997 0.112437 0.112438 0.109758 0.109759 0.106977 0.106978 0.104121 0.104123 0.101188 0.101189 0.098174 0.098175 0.095129 0.095131 0.092041 0.092043 0.088877 0.088878 0.085635 0.085636 0.082317 0.082319 0.078964 0.078966 0.075569 0.075571 0.07209 0.072092 0.06852 0.068522 0.064903 0.064905 0.061258 0.06126 0.05759 0.057592 0.0539 0.053902 0.050153 0.050155 0.046377 0.046379 0.042563 0.042564 0.038686 0.038688 0.034795 0.034797 0.030914 0.030916 0.026994 0.026996 0.023108 0.02311 0.019291 0.019292 0.015404 0.015406 0.01142 0.011422 0.007403 0.007404 0.003411 0.003413 -0.000586 -0.000585 -0.004596 -0.004595 -0.008605 -0.008603 -0.012551 -0.012549 -0.016445 -0.016444 -0.020386 -0.020385 -0.024363 -0.024362 -0.028334 -0.028333 -0.032271 -0.032269 -0.03617 -0.036169 -0.040043 -0.040042 -0.043904 -0.043902 -0.047714 -0.047713 -0.051481 -0.051479 -0.055234 -0.055232 -0.058966 -0.058964 -0.062655 -0.062653 -0.066222 -0.06622 -0.069724 -0.069722 -0.073253 -0.073251 -0.076743 -0.076741 -0.080121 -0.080119 -0.083442 -0.08344 -0.086745 -0.086743 -0.089973 -0.089972 -0.093121 -0.093119 -0.096236 -0.096235 -0.099309 -0.099308 -0.102268 -0.102266 -0.105134 -0.105132 -0.107901 -0.107899 -0.1106 -0.110598 -0.113259 -0.113257 -0.115848 -0.115846 -0.11838 -0.118379 -0.120826 -0.120824 -0.123178 -0.123177 -0.125442 -0.125441 -0.127589 -0.127588 -0.129627 -0.129626 -0.131597 -0.131597 -0.1335 -0.133499 -0.135297 -0.135297 -0.136972 -0.136972 -0.138552 -0.138552 -0.140043 -0.140043 -0.141415 -0.141415 0.139386 0.139388 0.140814 0.140816 0.142157 0.142158 0.14339 0.143391 0.144515 0.144516 0.145525 0.145526 0.146428 0.146428 0.147237 0.147238 0.147946 0.147947 0.148546 0.148547 0.149036 0.149036 0.149417 0.149417 0.149692 0.149693 0.149863 0.149863 0.149926 0.149926 0.149881 0.149881 0.149728 0.149728 0.149467 0.149467 0.149096 0.149096 0.148618 0.148618 0.148041 0.148041 0.14735 0.14735 0.14655 0.146551 0.145671 0.145672 0.144689 0.14469 0.14359 0.143592 0.142377 0.14238 0.141038 0.141042 0.139597 0.139603 0.138067 0.138074 0.136435 0.136444 0.134694 0.134706 0.13288 0.132895 0.130993 0.131013 0.128985 0.12901 0.126869 0.126902 0.124642 0.124684 0.122288 0.122342 0.119646 0.119714 0.116666 0.11675 0.113332 0.113433 0.109962 0.11008 0.106829 0.106965 0.103902 0.104053 0.101151 0.101317 0.098555 0.098733 0.096089 0.096279 0.093764 0.093965 0.091577 0.09179 0.089522 0.089747 0.087589 0.087828 0.085768 0.086022 0.084052 0.084324 0.082446 0.082738 0.080963 0.081279 0.079623 0.079964 0.07844 0.078807 0.077422 0.077813 0.076566 0.076979 0.075864 0.076298 0.075314 0.075765 0.074907 0.075376 0.074628 0.075112 0.074468 0.074968 0.074425 0.074942 0.074497 0.075034 0.074709 0.07527 0.074884 0.075475 0.074906 0.075526 0.074839 0.075479 0.074679 0.075331 0.074419 0.075081 0.074022 0.074699 0.073524 0.074225 0.073052 0.073783 0.072664 0.073426 0.072322 0.073108 0.071977 0.072779 0.071594 0.072403 0.071183 0.071993 0.070741 0.07155 0.070247 0.071057 0.069719 0.070528 0.069153 0.069962 0.068606 0.069413 0.068094 0.068898 0.0676 0.0684 0.067136 0.06793 0.066689 0.06748 0.066248 0.067038 0.065825 0.066621 0.065418 0.066224 0.06502 0.065838 0.064621 0.065455 0.064207 0.065058 0.063765 0.064638 0.06333 0.064226 0.062952 0.063873 0.0626 0.063549 0.062275 0.063253 0.062026 0.06303 0.061805 0.062824 0.061585 0.062606 0.06133 0.062349 0.06098 0.061985 0.06058 0.061576 0.060075 0.061053 0.059494 0.060459 0.058831 0.05978 0.058095 0.059027 0.057293 0.05821 0.05643 0.057329 0.055498 0.056379 0.054495 0.055356 0.0534 0.05424 0.052182 0.052996 0.050802 0.051586 0.049388 0.050141 0.047791 0.048512 0.046008 0.046697 0.044032 0.04469 0.041849 0.042477 0.039434 0.040034 0.036761 0.037333 0.033979 0.034527 0.031031 0.031556 0.027779 0.028284 0.024198 0.024686 0.020248 0.02072 0.01589 0.016349 0.011076 0.011526 0.005763 0.006205 0.000336 0.000776 -0.004827 -0.004387 -0.010075 -0.009631 -0.015096 -0.014645 -0.019645 -0.019183 -0.023766 -0.023291 -0.027503 -0.027013 -0.030895 -0.030388 -0.033978 -0.033451 -0.03678 -0.036232 -0.039326 -0.038755 -0.041636 -0.04104 -0.043726 -0.043104 -0.045608 -0.04496 -0.047295 -0.04662 -0.0488 -0.048098 -0.050143 -0.049414 -0.051356 -0.050602 -0.052472 -0.051693 -0.053509 -0.052708 -0.054482 -0.053656 -0.055538 -0.054686 -0.056489 -0.055612 -0.057353 -0.056452 -0.058142 -0.057218 -0.058863 -0.057917 -0.059503 -0.058537 -0.060122 -0.059136 -0.060743 -0.059736 -0.061362 -0.060334 -0.061993 -0.060946 -0.062675 -0.061616 -0.063357 -0.062287 -0.064028 -0.062958 -0.064734 -0.063655 -0.065401 -0.064318 -0.066039 -0.064947 -0.066621 -0.065522 -0.067131 -0.066032 -0.067649 -0.066538 -0.068129 -0.067006 -0.068488 -0.067364 -0.068795 -0.067652 -0.068962 -0.067834 -0.069062 -0.067947 -0.069065 -0.067976 -0.069098 -0.06806 -0.069179 -0.068189 -0.069083 -0.068135 -0.068931 -0.06804 -0.06884 -0.068004 -0.068606 -0.067822 -0.068488 -0.067748 -0.068387 -0.067683 -0.068318 -0.067644 -0.068401 -0.067753 -0.068601 -0.067974 -0.068855 -0.068245 -0.069159 -0.068564 -0.069532 -0.068949 -0.069974 -0.0694 -0.070539 -0.069973 -0.071209 -0.070651 -0.07196 -0.071409 -0.072635 -0.072089 -0.073225 -0.072684 -0.073715 -0.073176 -0.074129 -0.073593 -0.074495 -0.073966 -0.07483 -0.074312 -0.075128 -0.074624 -0.075332 -0.074842 -0.075416 -0.07494 -0.075447 -0.074984 -0.075549 -0.075097 -0.075761 -0.075322 -0.07611 -0.075684 -0.076555 -0.076144 -0.077062 -0.076668 -0.077696 -0.077321 -0.078467 -0.078113 -0.079365 -0.079033 -0.080375 -0.080063 -0.081477 -0.081186 -0.08266 -0.082388 -0.083923 -0.083669 -0.085273 -0.085036 -0.086722 -0.0865 -0.08828 -0.088071 -0.089952 -0.089755 -0.091747 -0.09156 -0.093669 -0.093492 -0.095723 -0.095555 -0.097913 -0.097755 -0.100247 -0.100099 -0.102735 -0.102598 -0.105387 -0.105264 -0.108224 -0.108114 -0.11127 -0.111174 -0.11455 -0.114468 -0.117738 -0.11767 -0.120573 -0.120518 -0.123072 -0.123028 -0.125405 -0.125371 -0.127607 -0.127582 -0.129692 -0.129673 -0.13169 -0.131676 -0.133604 -0.133594 -0.135421 -0.135414 -0.137118 -0.137112 -0.138712 -0.138708 -0.140208 -0.140205 -0.141594 -0.141592 -0.142884 -0.142882 -0.144059 -0.144058 -0.145125 -0.145124 -0.146098 -0.146097 -0.146959 -0.146959 -0.147708 -0.147708 -0.14835 -0.148349 -0.148882 -0.148881 -0.14931 -0.14931 -0.14963 -0.14963 -0.149836 -0.149836 -0.149932 -0.149932 -0.149922 -0.149922 -0.149802 -0.149802 -0.149574 -0.149574 -0.149243 -0.149243 -0.148803 -0.148803 -0.148252 -0.148252 -0.147591 -0.147591 -0.146816 -0.146816 -0.145934 -0.145934 -0.144949 -0.144948 -0.143858 -0.143857 -0.142678 -0.142678 
-0.0 0.1 0.0 0.1 0.0 0.1 -0.0 0.1 -0.0 0.1 -0.0 0.1 -0.0 0.1 -0.0 0.1 -0.0 0.1 0.0 0.1 0.0 0.1 0.0 0.1 0.0 0.1 0.0 0.1 0.0 0.1 0.0 0.1 0.0 0.1 0.0 0.1 0.0 0.1 0.0 0.1 0.0 0.1 0.0 0.1 0.0 0.1 0.0 0.1 0.0 0.1 0.0 0.1 0.0 0.1 0.0 0.1 0.0 0.1 0.0 0.1 0.0 0.1 0.0 0.1 0.0 0.1 0.0 0.1 0.0 0.1 0.0 0.1 0.0 0.1 0.0 0.1 0.0 0.1 0.0 0.1 0.0 0.1 0.0 0.1 0.0 0.1 0.0 0.1 0.0 0.1 0.0 0.1 0.0 0.1 0.0 0.1 -0.0 0.1 0.0 0.1 0.0 0.1 -0.0 0.1 -0.0 0.1 -0.0 0.1 -0.0 0.1 -0.0 0.1 -0.0 0.1 -0.0 0.1 -0.0 0.1 -0.0 0.1 -0.0 0.1 0.0 0.1 0.0 0.1 0.0 0.1 0.0 0.1 0.0 0.1 0.0 0.1 0.0 0.1 -0.0 0.1 0.0 0.1 -0.0 0.1 0.0 0.1 0.0 0.1 0.0 0.1 0.0 0.1 0.0 0.1 0.0 0.1 0.0 0.1 0.0 0.1 0.0 0.1 0.0 0.1 0.0 0.1 -0.0 0.1 0.0 0.1 -0.0 0.1 0.0 0.1 0.0 0.1 0.0 0.1 0.0 0.1 0.0 0.1 0.0 0.1 0.0 0.1 0.0 0.1 0.0 0.1 0.0 0.1 0.0 0.1 0.0 0.1 0.0 0.1 0.0 0.1 0.0 0.1 0.0 0.1 0.0 0.1 0.0 0.1 0.0 0.1 0.0 0.1 0.0 0.1 0.0 0.1 0.0 0.1 0.0 0.1 0.0 0.1 0.0 0.1 0.0 0.1 0.0 0.1 0.0 0.1 0.0 0.1 0.0 0.1 0.0 0.1 0.0 0.1 0.0 0.1 0.0 0.1 0.0 0.1 0.0 0.1 0.0 0.1 0.0 0.1 0.0 0.1 0.0 0.1 0.0 0.1 0.0 0.1 0.0 0.1 0.0 0.1 0.0 0.1 0.0 0.1 0.0 0.1 0.0 0.1 0.0 0.1 0.0 0.1 0.0 0.1 0.0 0.1 0.0 0.1 0.0 0.1 0.0 0.1 0.0 0.1 0.0 0.1 0.0 0.1 0.0 0.1 0.0 0.1 0.0 0.1 -0.0 0.1 0.0 0.1 0.0 0.1 0.0 0.1 0.0 0.1 0.0 0.1 0.0 0.1 0.0 0.1 0.0 0.1 0.0 0.1 -0.0 0.1 -0.0 0.1 0.0 0.099999 -0.0 0.099999 -0.0 0.099999 -0.0 0.099999 -0.0 0.099999 0.0 0.099999 0.0 0.099999 0.0 0.099999 0.0 0.099999 -0.0 0.1 0.0 0.1 0.0 0.1 1e-06 0.1 1e-06 0.1 1e-06 0.1 1e-06 0.1 1e-06 0.1 1e-06 0.1 1e-06 0.1 0.0 0.1 0.0 0.1 0.0 0.1 0.0 0.1 0.0 0.1 0.0 0.1 -0.0 0.1 -0.0 0.099999 -0.0 0.099999 -0.0 0.099999 -0.0 0.099999 -0.0 0.099998 -0.0 0.099997 -0.0 0.099996 -0.0 0.099996 -1e-06 0.099996 -1e-06 0.099996 -0.0 0.099997 -0.0 0.099998 -0.0 0.099999 1e-06 0.1 2e-06 0.1 3e-06 0.1 4e-06 0.100001 5e-06 0.100001 5e-06 0.100001 6e-06 0.100001 7e-06 0.100001 6e-06 0.100001 6e-06 0.100001 4e-06 0.100001 3e-06 0.100001 3e-06 0.100001 2e-06 0.1 2e-06 0.1 2e-06 0.1 2e-06 0.1 1e-06 0.1 1e-06 0.1 1e-06 0.1 0.0 0.1 0.0 0.1 0.0 0.1 0.0 0.1 0.0 0.1 0.0 0.1 0.0 0.1 -0.0 0.1 -0.0 0.1 -0.0 0.1 -0.0 0.1 -0.0 0.1 -0.0 0.1 -0.0 0.099999 -0.0 0.099999 -0.0 0.099999 -0.0 0.099999 -0.0 0.099998 -0.0 0.099998 -0.0 0.099998 -0.0 0.099997 -0.0 0.099996 -1e-06 0.099996 -1e-06 0.099996 -1e-06 0.099996 -1e-06 0.099996 -1e-06 0.099996 -1e-06 0.099996 -1e-06 0.099997 -1e-06 0.099996 -1e-06 0.099996 -1e-06 0.099996 -1e-06 0.099995 -1e-06 0.099995 -1e-06 0.099993 -1e-06 0.099992 -1e-06 0.099992 -1e-06 0.099992 -1e-06 0.099993 -1e-06 0.099994 -1e-06 0.099995 -0.0 0.099996 -0.0 0.099999 1e-06 0.099999 2e-06 0.1 4e-06 0.1 5e-06 0.100001 7e-06 0.100001 6e-06 0.100001 7e-06 0.100001 6e-06 0.100001 4e-06 0.100001 4e-06 0.100001 3e-06 0.1 2e-06 0.1 1e-06 0.1 1e-06 0.1 1e-06 0.1 0.0 0.1 0.0 0.1 0.0 0.1 0.0 0.1 0.0 0.1 0.0 0.1 -0.0 0.1 -0.0 0.1 0.0 0.1 0.0 0.1 0.0 0.1 0.0 0.1 0.0 0.1 0.0 0.1 0.0 0.1 0.0 0.1 0.0 0.1 0.0 0.1 0.0 0.1 0.0 0.1 -0.0 0.1 -0.0 0.1 -0.0 0.1 0.0 0.1 0.0 0.1 0.0 0.1 -0.0 0.1 -0.0 0.1 -0.0 0.1 -0.0 0.1 0.0 0.1 0.0 0.1 0.0 0.1 0.0 0.1 0.0 0.1 0.0 0.1 0.0 0.1 0.0 0.1 0.0 0.1 0.0 0.1 0.0 0.1 0.0 0.1 0.0 0.1 0.0 0.1 0.0 0.1 0.0 0.1 0.0 0.1 0.0 0.1 0.0 0.1 0.0 0.1 0.0 0.1 0.0 0.1 -0.0 0.1 0.0 0.1 0.0 0.1 0.0 0.1 -0.0 0.1 -0.0 0.1 0.0 0.1 -0.0 0.1 0.0 0.1 -0.0 0.1 0.0 0.1 0.0 0.1 0.0 0.1 0.0 0.1 0.0 0.1 0.0 0.1 0.0 0.1 0.0 0.1 0.0 0.1 0.0 0.1 0.0 0.1 0.0 0.1 0.0 0.1 0.0 0.1 0.0 0.1 0.0 0.1 0.0 0.1 0.0 0.1 0.0 0.1 0.0 0.1 0.0 0.1 0.0 0.1 