VARIABLES="X", "Y", "Z", "T", "Hw", "Hi", "HTC", "Beta", "MImp2", "Vd2", "TauX", "TauY", "TauZ"
ZONE T="WALL_2000"
NODES=720
ELEMENTS=720
DATAPACKING=BLOCK
ZONETYPE=FETRIANGLE
VARLOCATION=([4-13]=CELLCENTERED)
2.716999999999999797e-03 2.733999999999999885e-03 3.206000000000000082e-03 3.222000000000000038e-03 3.699000000000000031e-03 3.713999999999999854e-03 4.196000000000000077e-03 4.210000000000000200e-03 4.697999999999999919e-03 4.709999999999999777e-03 5.202000000000000027e-03 5.213999999999999885e-03 5.709999999999999798e-03 5.721000000000000391e-03 6.219999999999999835e-03 6.230000000000000294e-03 6.732000000000000137e-03 6.740999999999999596e-03 7.245999999999999837e-03 7.254000000000000031e-03 7.760000000000000404e-03 7.767999999999999731e-03 8.274000000000000105e-03 8.281000000000000166e-03 8.788000000000000672e-03 8.793999999999999734e-03 9.299999999999999239e-03 9.306000000000000036e-03 9.811999999999999542e-03 9.816999999999999338e-03 1.031999999999999931e-02 1.032500000000000084e-02 1.082600000000000055e-02 1.082999999999999935e-02 1.132700000000000026e-02 1.133100000000000079e-02 1.182399999999999944e-02 1.182700000000000071e-02 1.231499999999999956e-02 1.231699999999999982e-02 1.279899999999999961e-02 1.280099999999999988e-02 1.326500000000000075e-02 1.326699999999999928e-02 1.372199999999999982e-02 1.372400000000000009e-02 1.417000000000000030e-02 1.417200000000000057e-02 1.459399999999999933e-02 1.459500000000000033e-02 1.499200000000000012e-02 1.499299999999999938e-02 1.536900000000000072e-02 1.536999999999999998e-02 1.573300000000000046e-02 1.573400000000000146e-02 1.608700000000000060e-02 1.608700000000000060e-02 1.642199999999999910e-02 1.642300000000000010e-02 1.673300000000000134e-02 1.673399999999999888e-02 1.702100000000000141e-02 1.702100000000000141e-02 1.729299999999999934e-02 1.729400000000000034e-02 1.754500000000000157e-02 1.754599999999999910e-02 1.778100000000000167e-02 1.778100000000000167e-02 1.799699999999999911e-02 1.799699999999999911e-02 1.818900000000000031e-02 1.818900000000000031e-02 1.836199999999999985e-02 1.836199999999999985e-02 1.851600000000000121e-02 1.851600000000000121e-02 1.864899999999999891e-02 1.864899999999999891e-02 1.875999999999999890e-02 1.875999999999999890e-02 1.884800000000000017e-02 1.884800000000000017e-02 1.891500000000000126e-02 1.891500000000000126e-02 1.896099999999999869e-02 1.896099999999999869e-02 1.898800000000000140e-02 1.898800000000000140e-02 1.899299999999999947e-02 1.899299999999999947e-02 1.897700000000000081e-02 1.897700000000000081e-02 1.894099999999999950e-02 1.893999999999999850e-02 1.888099999999999848e-02 1.888099999999999848e-02 1.880099999999999827e-02 1.880000000000000074e-02 1.869900000000000034e-02 1.869900000000000034e-02 1.857699999999999976e-02 1.857699999999999976e-02 1.843699999999999853e-02 1.843699999999999853e-02 1.827799999999999911e-02 1.827799999999999911e-02 1.809499999999999997e-02 1.809499999999999997e-02 1.788999999999999965e-02 1.788999999999999965e-02 1.766399999999999915e-02 1.766300000000000162e-02 1.741799999999999946e-02 1.741799999999999946e-02 1.715399999999999911e-02 1.715399999999999911e-02 1.686599999999999905e-02 1.686500000000000152e-02 1.656200000000000033e-02 1.656099999999999933e-02 1.624300000000000049e-02 1.624199999999999949e-02 1.589899999999999994e-02 1.589899999999999994e-02 1.553900000000000073e-02 1.553799999999999973e-02 1.515400000000000080e-02 1.515299999999999980e-02 1.475399999999999975e-02 1.475199999999999949e-02 1.434000000000000032e-02 1.433800000000000005e-02 1.391599999999999955e-02 1.391399999999999929e-02 1.347600000000000013e-02 1.347399999999999987e-02 1.302099999999999959e-02 1.301899999999999932e-02 1.254599999999999986e-02 1.254300000000000033e-02 1.205600000000000074e-02 1.205299999999999948e-02 1.156100000000000010e-02 1.155800000000000056e-02 1.106099999999999965e-02 1.105800000000000012e-02 1.055700000000000041e-02 1.055299999999999988e-02 1.004900000000000064e-02 1.004500000000000011e-02 9.539000000000000604e-03 9.532999999999999807e-03 9.025999999999999301e-03 9.020000000000000240e-03 8.510999999999999469e-03 8.503999999999999407e-03 7.995000000000000370e-03 7.988000000000000309e-03 7.479999999999999670e-03 7.472000000000000343e-03 6.965999999999999970e-03 6.956999999999999643e-03 6.453999999999999668e-03 6.444000000000000075e-03 5.943000000000000366e-03 5.931999999999999773e-03 5.433999999999999594e-03 5.422999999999999869e-03 4.928000000000000089e-03 4.915000000000000098e-03 4.425000000000000114e-03 4.410999999999999990e-03 3.924999999999999670e-03 3.911000000000000414e-03 3.429999999999999889e-03 3.415000000000000067e-03 2.939000000000000206e-03 2.922999999999999817e-03 2.452999999999999885e-03 2.435999999999999797e-03 2.233999999999999875e-03 2.252000000000000095e-03 1.755999999999999965e-03 1.775000000000000102e-03 1.283000000000000069e-03 1.302999999999999905e-03 8.159999999999999936e-04 8.379999999999999862e-04 3.539999999999999853e-04 3.770000000000000022e-04 -1.010000000000000020e-04 -7.700000000000000139e-05 -5.509999999999999490e-04 -5.249999999999999676e-04 -9.940000000000000918e-04 -9.659999999999999533e-04 -1.430000000000000064e-03 -1.400999999999999902e-03 -1.860000000000000108e-03 -1.828999999999999897e-03 -2.282999999999999873e-03 -2.250999999999999963e-03 -2.699000000000000010e-03 -2.665999999999999967e-03 -3.109999999999999917e-03 -3.075000000000000042e-03 -3.514999999999999895e-03 -3.478000000000000189e-03 -3.916000000000000210e-03 -3.877999999999999937e-03 -4.310999999999999728e-03 -4.271999999999999756e-03 -4.700000000000000185e-03 -4.658999999999999947e-03 -5.080999999999999579e-03 -5.039000000000000076e-03 -5.455126697529332283e-03 -5.410335184885085164e-03 -5.820029150172982557e-03 -5.774639046984069227e-03 -6.178786676978846593e-03 -6.131482007522458082e-03 -6.531681294081803299e-03 -6.481288699784659019e-03 -6.876355178018985631e-03 -6.824837633248013319e-03 -7.214772121097206420e-03 -7.162199550243026659e-03 -7.548144722946345704e-03 -7.492610712605196448e-03 -7.873545758163472130e-03 -7.817963315780591602e-03 -8.193961986955954069e-03 -8.136327252336782168e-03 -8.508416240701468722e-03 -8.448965426471423401e-03 -8.817693844605928311e-03 -8.756674104911972220e-03 -9.120986405987760101e-03 -9.059287036242756261e-03 -9.419071245793676425e-03 -9.355515957616779288e-03 -9.711419033860418590e-03 -9.645809825855068340e-03 -9.996671266530423108e-03 -9.929944872988108462e-03 -1.027688989416574925e-02 -1.020730827237671667e-02 -1.055034146804216880e-02 -1.047970881354805435e-02 -1.081862940713268668e-02 -1.074595857112125089e-02 -1.107971225853774874e-02 -1.100575899523005205e-02 -1.133606407979542360e-02 -1.125968936270016658e-02 -1.158558421918547479e-02 -1.150817266185321514e-02 -1.183012318862438142e-02 -1.175053686742132814e-02 -1.206935621114673535e-02 -1.198888464344886537e-02 -1.230510138459861048e-02 -1.222383435602959235e-02 -1.253664732826945301e-02 -1.245465791035995327e-02 -1.276380232650496833e-02 -1.268213739919502384e-02 -1.298826122687033249e-02 -1.290560279781232007e-02 -1.320833742401396511e-02 -1.312304064638631154e-02 -1.342117725702343320e-02 -1.333399461687687255e-02 -1.362647232291355238e-02 -1.353613153114463855e-02 -1.382360515370308247e-02 -1.373129727333969458e-02 -1.401512924446283309e-02 -1.392045552832016191e-02 -1.420011924288458113e-02 -1.410424524786412989e-02 -1.437980205053803785e-02 -1.428168424027782997e-02 -1.455495326755631112e-02 -1.445519581897154043e-02 -1.472534662020555732e-02 -1.462528500256807251e-02 -1.489386632124326676e-02 -1.479424568840101428e-02 -1.506200740399358910e-02 -1.496431022620587498e-02 -1.523325491492348235e-02 -1.513943605003738140e-02 -1.540826008687992167e-02 -1.531588901839967334e-02 -1.558213163402683010e-02 -1.549051299285706708e-02 -1.575071757360648611e-02 -1.565653952500957111e-02 -1.590570189241497651e-02 -1.580303019174594120e-02 -1.604001387201038284e-02 -1.592932198337942626e-02 -1.615222721366358846e-02 -1.603124673262349212e-02 -1.623902377566055835e-02 -1.610921445692665294e-02 -1.630522174612066694e-02 -1.616656911583303283e-02 -1.636154460915070427e-02 -1.622919784087049899e-02 -1.644191097124912682e-02 -1.632639938831038223e-02 -1.655406808737621902e-02 -1.645128282574415471e-02 -1.668227079044022620e-02 -1.659036396760360868e-02 -1.682643520869723727e-02 -1.675246009405896921e-02 -1.700181745890232132e-02 -1.694927475192858565e-02 -1.720185910309844635e-02 -1.715941950978202429e-02 -1.737842240380292960e-02 -1.731547693851825595e-02 -1.744285590772810812e-02 -1.733177876827584479e-02 -1.733224862133692437e-02 -1.714439926934336819e-02 -1.708862978054348503e-02 -1.693374682923061425e-02 -1.694772575150564967e-02 -1.682409196118644576e-02 -1.686634726030967688e-02 -1.674377709481075782e-02 -1.682199793955093184e-02 -1.669750522475340823e-02 -1.681854853586446652e-02 -1.668505071729940725e-02 -1.685784660258911674e-02 -1.672341211854178056e-02 -1.692084500345320680e-02 -1.675965920585867006e-02 -1.698662025963710437e-02 -1.684908290622529059e-02 -1.711379236214882749e-02 -1.698360552735230997e-02 -1.725963350348539219e-02 -1.713323600789976725e-02 -1.741500293925309431e-02 -1.729199999999999834e-02 -1.757399999999999934e-02 -1.745299999999999976e-02 -1.773500000000000076e-02 -1.761700000000000071e-02 -1.789900000000000171e-02 -1.778400000000000120e-02 -1.806500000000000120e-02 -1.795100000000000168e-02 -1.823200000000000168e-02 -1.812100000000000169e-02 -1.840100000000000069e-02 -1.829300000000000023e-02 -1.857100000000000070e-02 -1.846599999999999978e-02 -1.874300221953358395e-02 -1.864206281969457701e-02 -1.891600360953576282e-02 -1.881813685903918273e-02 -1.907318097834495574e-02 -1.897363071011857680e-02 -1.921541450522079239e-02 -1.917026303814578156e-02 -1.948665629036291577e-02 -1.950028737240219745e-02 -1.985507729188729781e-02 -1.988503695896796930e-02 -2.021295912204366593e-02 -2.021611542528107749e-02 -2.044248615990433907e-02 -2.038203007514881315e-02 -2.048389992270509274e-02 -2.037527925620555638e-02 -2.038361604286825085e-02 -2.024535032650028391e-02 -2.019241951670940408e-02 -2.004520958448436849e-02 -1.997222798990977780e-02 -1.983218940250355833e-02 -1.976749577651418580e-02 -1.964602154075451024e-02 -1.960910853573596610e-02 -1.950052424894948080e-02 -1.948562862622195760e-02 -1.937610342491478260e-02 -1.938142489946979852e-02 -1.927328064061900950e-02 -1.931315584464991450e-02 -1.921306293617457833e-02 -1.929427487783750422e-02 -1.920587737360957351e-02 -1.931879559210005273e-02 -1.923963587056829252e-02 -1.937174991857765552e-02 -1.929970367619542743e-02 -1.943683519550665206e-02 -1.936772852629524075e-02 -1.949969149207406854e-02 -1.943250933416169543e-02 -1.955242832038223133e-02 -1.948447167485064038e-02 -1.959136122107368871e-02 -1.952292036459028421e-02 -1.961794988363781828e-02 -1.955041888309749093e-02 -1.963614770362665657e-02 -1.957123063590182621e-02 -1.965209247837586271e-02 -1.958961513679522565e-02 -1.967121369484874788e-02 -1.961230461381969700e-02 -1.969380289014262611e-02 -1.963834687310466592e-02 -1.971979838771407284e-02 -1.966794578367526622e-02 -1.975072166263124041e-02 -1.970368218141577143e-02 -1.978541494477336488e-02 -1.974260481794927469e-02 -1.982166439776714487e-02 -1.978189711831613434e-02 -1.986045295799305360e-02 -1.982528418416644109e-02 -1.990296620664825517e-02 -1.987137065524924306e-02 -1.994772191976059914e-02 -1.992038630229837903e-02 -1.999366481443760196e-02 -1.997102766196181753e-02 -2.004013567166589710e-02 -2.002172283209911058e-02 -2.008288987281567697e-02 -2.006830681281334197e-02 -2.011721066188367282e-02 -2.010651251052391827e-02 -2.014100333374149732e-02 -2.013394627822345101e-02 -2.015484512611560169e-02 -2.015157352824024570e-02 -2.015636952136248480e-02 -2.015725511608416898e-02 -2.014496624117689122e-02 -2.014969950368158264e-02 -2.012202653935853125e-02 -2.013059584039824518e-02 -2.008873743463704398e-02 -2.010125771439872158e-02 -2.004717733217319109e-02 -2.006357566972477233e-02 -1.999845631001520574e-02 -2.001897716329963800e-02 -1.994616899592003417e-02 -1.997090311238931826e-02 -1.989370315225904087e-02 -1.992293938809187870e-02 -1.984383841178923719e-02 -1.987782695309544406e-02 -1.979772914906836878e-02 -1.983507699136285649e-02 -1.975341911744155077e-02 -1.979486650203399548e-02 -1.971288587396993058e-02 -1.975804581987731373e-02 -1.967613336244134273e-02 -1.972464627894207970e-02 -1.964340000012120002e-02 -1.969642318168914399e-02 -1.961701482632033713e-02 -1.967448374943390685e-02 -1.959663425692803260e-02 -1.965739488022555034e-02 -1.957745953249120582e-02 -1.964086158071763968e-02 -1.955602613492808672e-02 -1.962153774445693152e-02 -1.952989880348936919e-02 -1.959741749535106117e-02 -1.949815719111758910e-02 -1.956770366869743649e-02 -1.946091748664181831e-02 -1.953175610944518636e-02 -1.941729593027175307e-02 -1.948889373087386856e-02 -1.936801568757176920e-02 -1.944003391098124076e-02 -1.931199058350492950e-02 -1.938427838094818403e-02 -1.925040541450697210e-02 -1.932534891526452997e-02 -1.919478153411220342e-02 -1.927637124867416507e-02 -1.916606812635316542e-02 -1.926007641652513827e-02 -1.918935649356308740e-02 -1.930036684820087695e-02 -1.927468046475730445e-02 -1.938823956181515845e-02 -1.938497626768322796e-02 -1.949289484369857300e-02 -1.952134327107638012e-02 -1.963939544431540785e-02 -1.970650545027307146e-02 -1.984800154431292513e-02 -1.994464384968886936e-02 -2.009571568038151512e-02 -2.018023537488711217e-02 -2.032094940841919217e-02 -2.035245557310040587e-02 -2.045736588028451014e-02 -2.037771380477993236e-02 -2.041202334007535119e-02 -2.020089210899193854e-02 -2.018561511408238640e-02 -1.985362482034924714e-02 -1.980576677423966786e-02 -1.944681803125342806e-02 -1.943684522378427704e-02 -1.912646523315935168e-02 -1.918210831087185236e-02 -1.893390321904469056e-02 -1.903394545086056072e-02 -1.877044884536956462e-02 -1.886930241988809404e-02 -1.859000362642884013e-02 -1.869199704179509008e-02 -1.840999999999999928e-02 -1.851600000000000121e-02 -1.823299999999999921e-02 -1.834200000000000066e-02 -1.805999999999999966e-02 -1.816999999999999865e-02 -1.788800000000000112e-02 -1.800099999999999964e-02 -1.771800000000000111e-02 -1.783300000000000163e-02 -1.754899999999999863e-02 -1.766500000000000015e-02 -1.737999999999999962e-02 -1.749900000000000067e-02 -1.721299999999999913e-02 -1.733499999999999971e-02 -1.704800000000000065e-02 -1.717300126326999632e-02 -1.688728629303068093e-02 -1.701487118573568463e-02 -1.673826607193912297e-02 -1.687204950789330041e-02 -1.662367932445018778e-02 -1.677163085654807817e-02 -1.657900145406203049e-02 -1.672745463238620167e-02 -1.656742944609255683e-02 -1.669537341161672975e-02 -1.657572289687597733e-02 -1.670373839165932572e-02 -1.662280832650039897e-02 -1.674611763062684375e-02 -1.669401115567666072e-02 -1.681620742314583403e-02 -1.679224676053797313e-02 -1.692286485533937151e-02 -1.695049878342834437e-02 -1.714551429865407081e-02 -1.718573418308396578e-02 -1.731292045298384735e-02 -1.718946525080190108e-02 -1.725529465906023435e-02 -1.704689144758956068e-02 -1.708652711641167263e-02 -1.683253683911540774e-02 -1.688274359316532108e-02 -1.662733811243237436e-02 -1.669998462288808591e-02 -1.645783996911357946e-02 -1.655045581373009583e-02 -1.631158037162978164e-02 -1.641593141086138824e-02 -1.618234321528192257e-02 -1.629828239756837827e-02 -1.607763033115668094e-02 -1.621070040817385038e-02 -1.600919182948842140e-02 -1.615050947759157779e-02 -1.595089670659023684e-02 -1.608567778047115607e-02 -1.587692476245687601e-02 -1.599973760508779236e-02 -1.577374449664042250e-02 -1.588180810868906542e-02 -1.563928928319236258e-02 -1.573702986482882968e-02 -1.547975676309536891e-02 -1.557237352919297289e-02 -1.530296370177468800e-02 -1.539304759079093352e-02 -1.511755168044325200e-02 -1.521045243484118320e-02 -1.493566952613295529e-02 -1.503233981330749126e-02 -1.475822916267771623e-02 -1.485666326582088352e-02 -1.458367381942309374e-02 -1.468443455825426021e-02 -1.441124760767841136e-02 -1.451193628083990821e-02 -1.423718114338196061e-02 -1.433543888085748660e-02 -1.405654583070886296e-02 -1.415409600678171030e-02 -1.387320292525476804e-02 -1.396864972094510535e-02 -1.368276261674487675e-02 -1.377473744287043868e-02 -1.348245522851658842e-02 -1.357218679781408560e-02 -1.327670957162334180e-02 -1.336505062485376927e-02 -1.306444113140315527e-02 -1.314923417860177843e-02 -1.284536447038010787e-02 -1.292841601385819397e-02 -1.261990593988964598e-02 -1.270260088686665095e-02 -1.238962311429159420e-02 -1.247171169331358007e-02 -1.215672117326154281e-02 -1.223869538747122607e-02 -1.192066149151956717e-02 -1.200070839362352149e-02 -1.167902104791647758e-02 -1.175837986144372301e-02 -1.143218936420556560e-02 -1.151056222418934960e-02 -1.118112891620180391e-02 -1.125720352207938701e-02 -1.092335182844666151e-02 -1.099894071057236702e-02 -1.066233331303006668e-02 -1.073563227706080848e-02 -1.039538049326506515e-02 -1.046619274359327813e-02 -1.012113190831005240e-02 -1.019041754196274574e-02 -9.839924958844122049e-03 -9.907077894102693169e-03 -9.551785088640763269e-03 -9.617268176126321857e-03 -9.258355545751491972e-03 -9.323029316065848879e-03 -8.959361799814973687e-03 -9.022156502474565354e-03 -8.653938228152940892e-03 -8.715071041548028488e-03 -8.343523462867300303e-03 -8.402967062855993749e-03 -8.027862030065467669e-03 -8.085464338036200266e-03 -7.706482841950969623e-03 -7.763000321693383672e-03 -7.377986700778698531e-03 -7.432524500835588528e-03 -7.044561940426975408e-03 -7.097084421852566799e-03 -6.704099102210904493e-03 -6.754582451324992430e-03 -6.357465118152647032e-03 -6.405776549198882730e-03 -6.002502907475868593e-03 -6.049821593689188454e-03 -5.641839181851371690e-03 -5.687397531891605698e-03 -5.273031834593944374e-03 -5.317999999999999811e-03 -4.897000000000000311e-03 -4.939999999999999947e-03 -4.512999999999999651e-03 -4.553999999999999888e-03 -4.121999999999999796e-03 -4.160999999999999768e-03 -3.725000000000000012e-03 -3.762000000000000153e-03 -3.322999999999999999e-03 -3.359000000000000007e-03 -2.916000000000000189e-03 -2.951000000000000064e-03 -2.504000000000000149e-03 -2.537999999999999892e-03 -2.086000000000000180e-03 -2.116999999999999958e-03 -1.660000000000000017e-03 -1.691000000000000012e-03 -1.227999999999999925e-03 -1.257000000000000088e-03 -7.900000000000000121e-04 -8.170000000000000179e-04 -3.449999999999999833e-04 -3.699999999999999947e-04 1.069999999999999988e-04 8.299999999999999815e-05 5.649999999999999641e-04 5.419999999999999471e-04 1.028000000000000051e-03 1.007000000000000083e-03 1.497999999999999983e-03 1.477999999999999930e-03 1.972999999999999927e-03 1.954000000000000008e-03 